# vtk DataFile Version 2.0
Particle data
ASCII
DATASET POLYDATA
POINTS 469 double
3.11059224e-02	1.67619115e-02	9.22172437e-03
3.09018337e-02	5.20523232e-03	1.43489837e-02
2.94745296e-02	-4.76976164e-03	6.39080054e-03
6.43678106e-03	-3.21736147e-02	1.04188289e-02
2.18111249e-02	-4.90721686e-03	2.30629914e-03
3.26447796e-02	2.29103885e-02	3.57562348e-03
3.09687691e-02	1.30240269e-02	1.12241250e-02
1.05167296e-02	-2.76002305e-02	1.80032372e-02
3.59456883e-02	-4.15507377e-03	1.81144133e-02
1.81447396e-02	-3.43397333e-02	1.80777905e-02
2.11572812e-02	9.23230836e-03	1.54719080e-02
3.00026206e-02	7.15003182e-03	1.78637514e-02
3.68624804e-02	-1.55677634e-02	1.18959817e-02
2.68090121e-02	-3.15820539e-03	3.45507686e-03
2.82366514e-02	1.63837615e-02	1.46795465e-02
1.22640905e-02	-3.88195016e-02	9.91668343e-03
1.36373183e-02	-2.30598477e-02	6.82888665e-03
3.44736378e-02	2.45298225e-03	1.93130858e-03
1.10910041e-02	-2.65173345e-02	1.34985626e-02
1.43358511e-02	-3.01123728e-03	1.10964360e-02
9.99744789e-03	-6.80976892e-03	2.14380943e-03
3.54070428e-02	-8.04289857e-03	1.75600484e-02
4.23333166e-03	-3.86168927e-02	2.28709120e-03
1.84059761e-02	-1.23544140e-02	2.14757495e-03
2.51937603e-02	-6.54666976e-03	2.10875864e-03
1.96489207e-02	-2.97696713e-02	8.63558534e-03
-9.87055945e-03	-3.46080303e-02	1.46784340e-02
3.61783442e-02	-1.43596710e-03	1.36314850e-02
-8.47370422e-04	-3.53458520e-02	1.01395416e-02
1.38480311e-02	-2.44779215e-02	1.47236806e-02
3.19386095e-02	-2.73379611e-03	1.06684044e-02
3.87714206e-02	5.62876830e-03	2.10761998e-03
3.33513793e-02	3.87155029e-03	5.74635838e-03
2.71083482e-02	-1.08668154e-02	1.80334081e-02
2.90052156e-02	-2.71987688e-02	1.10462316e-02
3.31366156e-02	-4.37203437e-03	1.13224785e-02
3.30740818e-02	2.11593139e-02	6.36292823e-03
-7.79601205e-03	-3.80082975e-02	1.01189303e-02
3.03804519e-02	7.48667182e-03	1.02768123e-02
1.98276970e-02	-6.48036049e-03	2.26974443e-03
-3.93244613e-03	-3.50366116e-02	1.16071463e-02
3.85457453e-02	6.26026574e-03	1.48552781e-02
2.79585268e-02	-2.74180349e-02	2.26047868e-03
1.60785549e-02	-1.05482978e-02	1.79117606e-02
2.19637114e-02	-2.02222897e-02	1.65394392e-02
3.02864414e-03	-1.82399891e-02	1.31557504e-02
1.50809969e-02	-1.51030896e-02	1.08853074e-02
-5.29286855e-03	-2.96650637e-02	1.37896516e-02
7.29019094e-03	-2.64147110e-02	1.12612500e-02
1.71143812e-02	-9.65647212e-04	1.69046437e-02
1.13741589e-02	-2.67086877e-02	2.71020430e-03
9.22435115e-03	-2.26107448e-02	9.52581023e-03
-1.12642313e-02	-3.60140710e-02	1.13091769e-02
1.30794197e-02	-2.28466682e-02	2.48314189e-03
1.46478962e-02	-3.47507324e-02	1.05914876e-02
3.71688288e-03	-3.41654411e-02	1.52535560e-02
1.70158151e-02	-3.67893330e-02	9.13973392e-03
4.56624877e-03	-1.64486658e-02	1.38735217e-02
2.92089907e-02	-2.18201645e-02	1.45945866e-02
2.25668715e-02	-2.33103215e-02	1.53186843e-02
2.99903729e-02	-2.01609466e-02	1.79409033e-02
2.71386115e-02	-1.40079529e-02	1.08257418e-02
2.03748187e-02	-1.07875778e-02	1.84815997e-02
5.08330342e-03	-3.74571014e-02	9.57169135e-03
3.31592173e-02	-6.61449272e-03	4.66677936e-03
1.45130749e-02	-3.27355905e-04	1.27860300e-02
2.40929772e-02	-3.17367583e-02	3.42374229e-03
3.11996962e-02	2.34142605e-03	1.83092943e-02
2.40791234e-02	-2.81461816e-02	6.29304069e-03
3.67272535e-02	-1.59832656e-02	9.80646344e-03
2.59458422e-05	-2.90333301e-02	5.28667004e-03
3.64843682e-02	-7.57286928e-03	2.53998349e-03
2.52107349e-02	1.10736102e-02	1.77922282e-02
-1.67950294e-02	-3.05666251e-02	9.64552645e-03
3.79358382e-02	1.14768611e-02	6.28240680e-03
-2.57831225e-03	-3.26623753e-02	1.79781044e-02
1.06014491e-02	-2.61089681e-02	7.11469382e-03
2.77092314e-02	9.78018674e-03	1.03579030e-02
3.54724137e-02	-1.88012708e-02	1.80990034e-02
1.16174007e-02	-3.78542781e-02	1.79742114e-02
3.06152653e-03	-2.15341637e-02	1.02379846e-02
2.88303589e-02	-1.16439240e-02	6.87800542e-03
2.63564193e-02	-1.51296996e-02	2.05791640e-03
2.36465233e-02	-1.60163382e-02	1.79116032e-02
2.79320244e-02	-1.78720676e-02	2.47902147e-03
3.29976485e-03	-7.09861777e-03	1.92016694e-03
3.53885734e-02	7.49561413e-03	1.44526450e-02
7.78564231e-03	-3.97874315e-02	1.10208695e-02
3.25328749e-02	-1.64582215e-02	6.41426043e-03
1.95428869e-02	-2.83986444e-02	4.09547825e-03
-9.12660708e-03	-2.84826418e-02	9.11885742e-03
2.50797676e-02	9.84317778e-03	2.80201418e-03
3.65947394e-02	-5.96568181e-03	6.38015452e-03
-1.30263629e-02	-3.39362906e-02	2.60694832e-03
3.08570273e-02	-1.92273104e-04	6.69120345e-03
3.89740215e-02	-4.82188146e-03	8.28620750e-03
5.32082341e-03	-3.96555107e-02	5.89317915e-03
2.16360477e-02	-2.91132404e-02	1.33530719e-02
2.45770539e-02	-8.27249932e-03	1.83976345e-02
2.64881347e-02	-2.89007152e-03	7.52606996e-03
1.81707388e-02	-2.66560790e-02	7.45862447e-03
1.96556514e-02	-2.65650447e-02	1.13794226e-02
-2.03225558e-03	-3.51037962e-02	1.59820081e-02
3.65319413e-02	-1.50016336e-02	1.67608542e-02
2.24697864e-02	-2.47317410e-02	7.24346057e-03
-4.23709596e-03	-2.46690699e-02	4.20242660e-03
1.68716600e-02	-1.93491147e-02	6.65016960e-03
1.62727771e-02	-2.50658372e-02	5.09028504e-03
2.02236838e-02	-3.11845455e-02	1.51070713e-03
2.50269825e-02	5.00758220e-03	4.66596270e-03
1.37197439e-02	-3.69183926e-02	2.12435271e-03
6.05303915e-03	-1.11591429e-02	1.71575524e-02
1.64213330e-03	-2.30208721e-02	1.71708912e-02
8.09983875e-03	-3.34846991e-02	2.14677533e-03
2.97076949e-02	-1.43916271e-02	1.40586415e-02
2.45164166e-02	-2.25636890e-02	1.99914499e-03
-1.85510418e-02	-3.36596488e-02	1.58462129e-02
1.63585992e-02	-3.67091448e-02	5.10730964e-03
2.90270089e-02	-7.97818016e-04	1.00190381e-02
3.88425817e-02	7.89910102e-03	8.06396185e-03
1.96771808e-02	5.39900427e-03	1.93541326e-03
2.00505376e-02	-1.35998256e-02	1.33069838e-02
1.78729792e-02	5.70293466e-03	1.37257069e-02
3.50125315e-02	-1.89810146e-02	5.73799997e-03
3.79256370e-02	-1.06226719e-02	1.82410887e-02
7.52693852e-03	-7.04906291e-03	8.10053354e-03
3.53600430e-02	1.69793920e-02	6.49765996e-03
3.08356892e-02	9.05022728e-03	7.21963697e-03
3.56508329e-03	-3.55865147e-02	1.14014738e-02
8.92777940e-04	-2.87268725e-02	1.95058167e-03
4.35662819e-03	-3.17025888e-02	2.43379404e-03
3.83467100e-02	-9.72705995e-03	4.46677649e-03
1.10398094e-02	-9.70385942e-03	1.75801091e-02
3.54269166e-02	3.72642614e-03	1.37010556e-02
1.49932362e-02	-1.53862360e-02	6.30547299e-03
3.23902776e-02	-2.34357546e-02	1.38354101e-02
3.13389533e-02	-8.98744663e-04	4.13744914e-03
3.11581080e-02	1.89764234e-02	1.93534835e-03
1.75394615e-02	-1.92282063e-02	1.14017089e-02
7.41057219e-03	-2.84438431e-02	1.65814475e-02
2.78441379e-02	-1.88974360e-02	1.52927516e-02
1.26567033e-02	-2.70608896e-04	5.59641478e-03
1.33759757e-02	-9.69102567e-03	1.36255735e-02
-1.17190563e-02	-3.79318921e-02	2.33818209e-03
2.82285825e-02	1.39733118e-02	8.66857883e-03
1.45269509e-02	7.79317023e-04	2.01075394e-03
7.32057429e-03	-4.04864720e-02	1.92746649e-03
2.68115763e-02	1.72283302e-02	2.13063166e-03
2.03596119e-02	-1.32701178e-02	8.27055845e-03
1.83534018e-02	-2.71630588e-02	1.53618528e-02
1.86659201e-02	-6.73761514e-03	9.20962375e-03
2.10720434e-02	-1.92009284e-02	8.55074966e-03
3.67346694e-02	1.61943614e-02	1.20140104e-02
-3.75823640e-03	-2.23939895e-02	1.51046130e-02
7.84287369e-03	-3.03210947e-02	8.81223286e-03
8.20600392e-03	-3.46385430e-02	1.38022687e-02
3.65673023e-02	1.47971723e-02	3.63765529e-03
2.08713192e-02	-7.39628472e-03	5.25227411e-03
3.49535848e-02	-1.79851202e-02	1.44329976e-02
2.33096283e-02	2.89034965e-03	2.19152611e-03
3.51308919e-02	-1.92629836e-03	7.51927759e-03
3.48727424e-02	1.81443665e-02	1.86066209e-03
3.20558078e-02	-2.07236041e-02	9.08007058e-03
4.68087959e-04	-3.39642241e-02	1.82810541e-02
2.35477016e-02	-1.22971924e-02	2.21584055e-03
2.85775406e-02	4.92887641e-03	1.26437925e-02
4.86484764e-03	-3.06817076e-02	5.77861854e-03
1.92463086e-02	9.23043189e-03	5.06888029e-03
4.25887461e-03	-3.75412566e-02	1.78740771e-02
1.00494496e-02	-3.89311442e-02	5.87993273e-03
3.38186126e-02	1.87352119e-02	9.68270206e-03
2.49982148e-02	-2.68927108e-02	1.05885258e-02
-2.63990330e-03	-2.67076055e-02	1.67330064e-02
3.19731477e-02	1.04444942e-02	1.50076440e-02
2.43138977e-02	9.00184022e-03	5.44051381e-03
3.37720944e-02	1.25496657e-02	1.19767369e-02
3.90893103e-02	3.53075968e-03	1.81089778e-03
3.38446948e-02	-1.25440589e-02	1.77323847e-02
3.75110271e-02	1.19683606e-02	1.80414417e-02
2.40641461e-02	-1.45131490e-02	7.13609080e-03
-6.50692567e-04	-3.46655394e-02	4.91591004e-03
2.90566732e-02	-1.57445633e-02	5.16769340e-03
2.35079446e-02	4.28284738e-03	1.73222532e-02
-1.45772479e-03	-3.91304588e-02	1.33839929e-02
2.84837409e-02	-8.23323741e-03	1.16806318e-02
3.74470466e-02	1.26723062e-02	9.62351273e-03
2.20234557e-02	4.28049857e-03	1.05500107e-02
3.90603782e-02	4.39022900e-04	1.46245690e-02
2.02049013e-02	-5.29296986e-03	1.75031969e-02
3.77518785e-02	9.85338660e-03	1.18893777e-03
1.18945166e-02	-3.68968375e-02	1.49375957e-02
2.53626008e-02	-1.37317096e-02	1.45213369e-02
5.67279526e-03	-3.87154171e-02	1.57859814e-02
-1.16043924e-02	-3.82914463e-02	1.72803013e-02
2.45027846e-02	-6.79891823e-03	5.70843042e-03
4.94112352e-03	-3.12067442e-02	1.38995690e-02
3.19282899e-02	-1.16300073e-02	1.06013273e-02
1.44762062e-02	-2.61226425e-02	8.97645973e-03
9.91019436e-03	-1.56786874e-02	7.88349060e-03
2.05527466e-02	-2.89674713e-02	1.81739743e-02
-8.41655723e-03	-2.68331085e-02	1.43025462e-02
-2.44137790e-04	-2.24038234e-02	1.31307306e-02
7.13945581e-03	-3.96456155e-02	1.79420482e-02
3.76437797e-02	-1.09052375e-02	1.14790627e-02
1.75602638e-02	-3.38541526e-02	1.46718231e-02
1.26895873e-03	-2.51859783e-02	7.74937559e-03
-2.25835202e-03	-3.30048098e-02	1.32090945e-02
-3.75380595e-03	-3.35680153e-02	6.59143350e-03
3.15972516e-02	-3.55760266e-03	1.42998497e-02
1.15092867e-03	-3.08062748e-02	1.14212330e-02
2.97816342e-02	-2.66763721e-02	1.48244674e-02
1.93495160e-02	-2.44511641e-02	2.14343070e-03
2.63128324e-02	-2.56737892e-02	1.39732970e-02
2.51458726e-02	-2.11512302e-02	1.40507191e-02
3.29381015e-02	8.23911722e-05	1.50239845e-02
2.96870602e-02	-5.07221161e-03	2.06954620e-03
[...]
POINT_DATA 469
SCALARS Radius double 1
LOOKUP_TABLE default
2.00000000e-03
2.00000000e-03
2.00000000e-03
2.00000000e-03
2.00000000e-03
2.00000000e-03
2.00000000e-03
2.00000000e-03
2.00000000e-03
2.00000000e-03
2.00000000e-03
2.00000000e-03
2.00000000e-03
2.00000000e-03
2.00000000e-03
2.00000000e-03
2.00000000e-03
2.00000000e-03
2.00000000e-03
2.00000000e-03
2.00000000e-03
2.00000000e-03
2.00000000e-03
2.00000000e-03
2.00000000e-03
2.00000000e-03
2.00000000e-03
2.00000000e-03
2.00000000e-03
2.00000000e-03
2.00000000e-03
2.00000000e-03
2.00000000e-03
2.00000000e-03
2.00000000e-03
2.00000000e-03
2.00000000e-03
2.00000000e-03
2.00000000e-03
2.00000000e-03
2.00000000e-03
2.00000000e-03
2.00000000e-03
2.00000000e-03
2.00000000e-03
2.00000000e-03
2.00000000e-03
2.00000000e-03
2.00000000e-03
2.00000000e-03
2.00000000e-03
2.00000000e-03
2.00000000e-03
2.00000000e-03
2.00000000e-03
2.00000000e-03
2.00000000e-03
2.00000000e-03
2.00000000e-03
2.00000000e-03
2.00000000e-03
2.00000000e-03
2.00000000e-03
2.00000000e-03
2.00000000e-03
2.00000000e-03
2.00000000e-03
2.00000000e-03
2.00000000e-03
2.00000000e-03
2.00000000e-03
2.00000000e-03
2.00000000e-03
2.00000000e-03
2.00000000e-03
2.00000000e-03
2.00000000e-03
2.00000000e-03
2.00000000e-03
2.00000000e-03
2.00000000e-03
2.00000000e-03
2.00000000e-03
2.00000000e-03
2.00000000e-03
2.00000000e-03
2.00000000e-03
2.00000000e-03
2.00000000e-03
2.00000000e-03
2.00000000e-03
2.00000000e-03
2.00000000e-03
2.00000000e-03
2.00000000e-03
2.00000000e-03
2.00000000e-03
2.00000000e-03
2.00000000e-03
2.00000000e-03
2.00000000e-03
2.00000000e-03
2.00000000e-03
2.00000000e-03
2.00000000e-03
2.00000000e-03
2.00000000e-03
2.00000000e-03
2.00000000e-03
2.00000000e-03
2.00000000e-03
2.00000000e-03
2.00000000e-03
2.00000000e-03
2.00000000e-03
2.00000000e-03
2.00000000e-03
2.00000000e-03
2.00000000e-03
2.00000000e-03
2.00000000e-03
2.00000000e-03
2.00000000e-03
2.00000000e-03
2.00000000e-03
2.00000000e-03
2.00000000e-03
2.00000000e-03
2.00000000e-03
2.00000000e-03
2.00000000e-03
2.00000000e-03
2.00000000e-03
2.00000000e-03
2.00000000e-03
2.00000000e-03
2.00000000e-03
2.00000000e-03
2.00000000e-03
2.00000000e-03
2.00000000e-03
2.00000000e-03
2.00000000e-03
2.00000000e-03
2.00000000e-03
2.00000000e-03
2.00000000e-03
2.00000000e-03
2.00000000e-03
2.00000000e-03
2.00000000e-03
2.00000000e-03
2.00000000e-03
2.00000000e-03
2.00000000e-03
2.00000000e-03
2.00000000e-03
2.00000000e-03
2.00000000e-03
2.00000000e-03
2.00000000e-03
2.00000000e-03
2.00000000e-03
2.00000000e-03
2.00000000e-03
2.00000000e-03
2.00000000e-03
2.00000000e-03
2.00000000e-03
2.00000000e-03
2.00000000e-03
2.00000000e-03
2.00000000e-03
2.00000000e-03
2.00000000e-03
2.00000000e-03
2.00000000e-03
2.00000000e-03
2.00000000e-03
2.00000000e-03
2.00000000e-03
2.00000000e-03
2.00000000e-03
2.00000000e-03
2.00000000e-03
2.00000000e-03
2.00000000e-03
2.00000000e-03
2.00000000e-03
2.00000000e-03
2.00000000e-03
2.00000000e-03
2.00000000e-03
2.00000000e-03
2.00000000e-03
2.00000000e-03
2.00000000e-03
2.00000000e-03
2.00000000e-03
2.00000000e-03
2.00000000e-03
2.00000000e-03
2.00000000e-03
2.00000000e-03
2.00000000e-03
2.00000000e-03
2.00000000e-03
2.00000000e-03
2.00000000e-03
2.00000000e-03
2.00000000e-03
2.00000000e-03
2.00000000e-03
2.00000000e-03
2.00000000e-03
2.00000000e-03
2.00000000e-03
2.00000000e-03
2.00000000e-03
2.00000000e-03
2.00000000e-03
2.00000000e-03
2.00000000e-03
2.00000000e-03
2.00000000e-03
2.00000000e-03
2.00000000e-03
2.00000000e-03
2.00000000e-03
2.00000000e-03
2.00000000e-03
2.00000000e-03
2.00000000e-03
2.00000000e-03
2.00000000e-03
2.00000000e-03
2.00000000e-03
2.00000000e-03
2.00000000e-03
2.00000000e-03
2.00000000e-03
2.00000000e-03
2.00000000e-03
2.00000000e-03
2.00000000e-03
2.00000000e-03
2.00000000e-03
2.00000000e-03
2.00000000e-03
2.00000000e-03
2.00000000e-03
2.00000000e-03
2.00000000e-03
2.00000000e-03
2.00000000e-03
2.00000000e-03
2.00000000e-03
2.00000000e-03
2.00000000e-03
2.00000000e-03
2.00000000e-03
2.00000000e-03
2.00000000e-03
2.00000000e-03
2.00000000e-03
2.00000000e-03
2.00000000e-03
2.00000000e-03
2.00000000e-03
2.00000000e-03
2.00000000e-03
2.00000000e-03
2.00000000e-03
2.00000000e-03
2.00000000e-03
2.00000000e-03
2.00000000e-03
2.00000000e-03
2.00000000e-03
2.00000000e-03
2.00000000e-03
2.00000000e-03
2.00000000e-03
2.00000000e-03
2.00000000e-03
2.00000000e-03
2.00000000e-03
2.00000000e-03
2.00000000e-03
2.00000000e-03
2.00000000e-03
2.00000000e-03
2.00000000e-03
2.00000000e-03
2.00000000e-03
2.00000000e-03
2.00000000e-03
2.00000000e-03
2.00000000e-03
2.00000000e-03
2.00000000e-03
2.00000000e-03
2.00000000e-03
2.00000000e-03
2.00000000e-03
2.00000000e-03
2.00000000e-03
2.00000000e-03
2.00000000e-03
2.00000000e-03
2.00000000e-03
2.00000000e-03
2.00000000e-03
2.00000000e-03
2.00000000e-03
2.00000000e-03
2.00000000e-03
2.00000000e-03
2.00000000e-03
2.00000000e-03
2.00000000e-03
2.00000000e-03
2.00000000e-03
2.00000000e-03
2.00000000e-03
2.00000000e-03
2.00000000e-03
2.00000000e-03
2.00000000e-03
2.00000000e-03
2.00000000e-03
2.00000000e-03
2.00000000e-03
2.00000000e-03
2.00000000e-03
2.00000000e-03
2.00000000e-03
2.00000000e-03
2.00000000e-03
2.00000000e-03
2.00000000e-03
2.00000000e-03
2.00000000e-03
2.00000000e-03
2.00000000e-03
2.00000000e-03
2.00000000e-03
2.00000000e-03
2.00000000e-03
2.00000000e-03
2.00000000e-03
2.00000000e-03
2.00000000e-03
2.00000000e-03
2.00000000e-03
2.00000000e-03
2.00000000e-03
2.00000000e-03
2.00000000e-03
2.00000000e-03
2.00000000e-03
2.00000000e-03
2.00000000e-03
2.00000000e-03
2.00000000e-03
2.00000000e-03
2.00000000e-03
2.00000000e-03
2.00000000e-03
2.00000000e-03
2.00000000e-03
2.00000000e-03
2.00000000e-03
2.00000000e-03
2.00000000e-03
2.00000000e-03
2.00000000e-03
2.00000000e-03
2.00000000e-03
2.00000000e-03
2.00000000e-03
2.00000000e-03
2.00000000e-03
2.00000000e-03
2.00000000e-03
2.00000000e-03
2.00000000e-03
2.00000000e-03
2.00000000e-03
2.00000000e-03
2.00000000e-03
2.00000000e-03
2.00000000e-03
2.00000000e-03
2.00000000e-03
2.00000000e-03
2.00000000e-03
2.00000000e-03
2.00000000e-03
2.00000000e-03
2.00000000e-03
2.00000000e-03
2.00000000e-03
2.00000000e-03
2.00000000e-03
2.00000000e-03
2.00000000e-03
2.00000000e-03
2.00000000e-03
2.00000000e-03
2.00000000e-03
2.00000000e-03
2.00000000e-03
2.00000000e-03
2.00000000e-03
2.00000000e-03
2.00000000e-03
2.00000000e-03
2.00000000e-03
2.00000000e-03
2.00000000e-03
2.00000000e-03
2.00000000e-03
2.00000000e-03
2.00000000e-03
2.00000000e-03
2.00000000e-03
2.00000000e-03
2.00000000e-03
2.00000000e-03
2.00000000e-03
2.00000000e-03
2.00000000e-03
2.00000000e-03
2.00000000e-03
2.00000000e-03
2.00000000e-03
2.00000000e-03
2.00000000e-03
2.00000000e-03
2.00000000e-03
2.00000000e-03
2.00000000e-03
2.00000000e-03
2.00000000e-03
2.00000000e-03
2.00000000e-03
2.00000000e-03
2.00000000e-03
2.00000000e-03
2.00000000e-03
2.00000000e-03
2.00000000e-03
2.00000000e-03
2.00000000e-03
2.00000000e-03
2.00000000e-03
2.00000000e-03
2.00000000e-03
2.00000000e-03
2.00000000e-03
2.00000000e-03
2.00000000e-03
2.00000000e-03
2.00000000e-03
2.00000000e-03
2.00000000e-03
2.00000000e-03
2.00000000e-03
