# vtk DataFile Version 2.0
Particle data
ASCII
DATASET POLYDATA
POINTS 469 double
1.61693537e-03	-3.51971803e-02	8.82531318e-03
1.82018046e-02	-2.73420402e-03	1.00701003e-02
2.81194113e-02	1.23123985e-02	1.94906101e-03
3.77629181e-02	-1.37203742e-02	1.79456231e-02
2.74424209e-02	1.14805195e-02	5.57178322e-03
3.47707557e-03	-3.94885425e-02	2.34438433e-03
1.12398215e-03	-3.27287426e-02	1.17602002e-02
2.04798926e-02	-2.09815181e-02	1.75777750e-02
1.07652381e-02	-2.22426243e-03	1.70028784e-02
3.65490133e-02	6.78232619e-04	1.06769020e-02
7.88642951e-03	-3.97533831e-02	1.75788085e-02
5.75906287e-03	-2.18653374e-02	1.79414753e-02
8.63546268e-03	-9.16682218e-03	1.49494023e-02
3.43340417e-02	1.90227555e-02	2.02855734e-03
6.35164475e-03	-3.96091152e-02	1.42204547e-02
3.24265379e-02	-9.28154269e-03	1.21977781e-02
3.29175308e-02	-1.65807878e-02	1.42929221e-02
1.38962821e-02	-4.62317253e-03	3.33964768e-03
2.27655574e-02	-2.23681426e-02	1.41574252e-02
1.17628512e-02	-3.64457671e-02	1.09683924e-02
1.54039891e-02	-3.33615360e-02	2.03213275e-03
1.49451628e-02	2.16693555e-03	1.80961144e-02
3.56068129e-02	-1.08002445e-02	1.11939309e-02
1.58714699e-02	-1.78048466e-02	2.14840356e-03
2.88154421e-02	3.04187056e-03	2.02563781e-03
3.70038786e-02	-3.88911192e-03	1.47512852e-02
2.40970274e-02	-3.20791420e-02	1.45148119e-02
2.96899699e-03	-2.34954993e-02	1.43304360e-02
3.36961541e-02	-2.13099094e-02	1.69616096e-02
1.57608428e-02	-1.43404673e-02	1.43330115e-02
1.33295259e-02	-4.39406597e-03	1.46900784e-02
-7.65868894e-03	-3.88278607e-02	2.20259569e-03
9.08929059e-03	-1.42711769e-02	7.60405218e-03
2.27676063e-02	-2.40295377e-03	1.77921825e-02
2.81034978e-02	-4.84652856e-03	9.31721210e-03
3.32466586e-02	1.65819187e-02	1.17346758e-02
4.16154514e-03	-3.68859000e-02	5.40202307e-03
2.57947509e-02	-2.55073331e-02	9.37276257e-03
9.36015414e-03	-1.99089488e-02	1.10887565e-02
2.66265822e-02	-4.48871650e-03	2.45094123e-03
2.31663327e-02	-2.82823350e-02	8.08167321e-03
-6.14922962e-04	-1.97965481e-02	1.49727977e-02
3.23448151e-02	5.45225683e-03	2.02017858e-03
8.10552327e-03	-2.37159085e-02	1.43325883e-02
3.56080544e-02	-6.32670074e-03	1.31195872e-02
1.63563887e-02	-3.21776557e-02	1.07531254e-02
1.27976951e-02	-2.65705672e-02	1.37994862e-02
1.12069823e-02	-2.76936590e-02	5.60181841e-03
1.66046459e-02	-1.70015070e-02	1.15543530e-02
3.04942820e-03	-2.92390121e-02	1.77486942e-02
1.49802066e-02	-9.96863378e-03	4.74334257e-03
1.68245972e-02	-6.51961143e-03	2.38598521e-03
3.51447878e-02	-1.03489616e-02	1.62769814e-02
2.16009725e-02	-1.94923699e-02	8.17595178e-03
3.91057559e-02	-6.39554729e-03	4.99751168e-03
3.21329583e-02	-2.36840041e-02	1.42792137e-02
3.60141130e-02	-2.49067961e-03	9.21319069e-03
1.42090531e-02	-3.00000205e-02	1.49822883e-02
3.97362904e-02	1.47978043e-03	1.43438737e-02
3.62914342e-02	2.63098014e-03	1.72670663e-02
3.61258658e-02	1.70143406e-02	1.65660107e-02
2.33035186e-02	-1.18371692e-02	1.13570181e-02
8.56889291e-03	-2.60710147e-02	1.82431815e-02
3.17701638e-02	-1.81607869e-02	1.00713167e-02
2.98403788e-02	2.02989468e-02	3.16181385e-03
1.48787853e-02	-3.73238330e-02	6.65744164e-03
3.46000270e-02	5.40947873e-03	5.81513993e-03
2.03198657e-02	5.40626303e-03	1.66630150e-02
3.95955549e-02	-2.16265696e-03	1.14993631e-02
3.31115178e-02	1.01499343e-02	1.05119483e-02
2.58049180e-02	-3.02836883e-02	6.23463371e-03
1.54249758e-02	6.07309289e-03	2.04595223e-03
5.39293363e-03	-3.39159982e-02	1.80003359e-02
2.06553461e-02	-3.08338934e-02	8.48529410e-03
-2.00145062e-03	-3.33480843e-02	7.10417542e-03
2.24009313e-02	-3.26489859e-02	1.81531450e-02
2.37415056e-02	-2.35929262e-02	5.59574662e-03
1.29966840e-02	-1.51200981e-02	4.18728333e-03
2.30635616e-02	7.72689037e-03	2.72256070e-03
1.83811387e-02	-1.77216516e-02	1.80065574e-02
1.49316594e-02	-2.91203610e-02	5.46622474e-03
2.51948935e-02	-4.60660558e-03	6.43618203e-03
3.60147417e-02	4.50157191e-03	1.91244859e-03
3.48776495e-02	1.18893576e-02	1.75067891e-02
2.82619862e-02	1.24588812e-04	1.90829146e-03
1.47809122e-02	-3.72314941e-02	1.95559742e-03
-5.48379388e-03	-3.49464486e-02	1.07593205e-02
3.36886720e-02	-1.37470261e-02	1.28143144e-02
2.98273811e-02	5.54400462e-03	5.46392656e-03
2.74076177e-02	-1.51282654e-02	6.73592280e-03
1.82880759e-02	-3.17634931e-02	5.38006993e-03
1.25514675e-02	-8.86187237e-03	4.64695378e-03
2.15668879e-02	1.99470674e-03	6.78298321e-03
2.53395529e-02	-3.07651164e-02	1.02643854e-02
2.94222047e-02	1.11157760e-02	1.74940478e-02
1.12960192e-03	-1.59853029e-02	4.95315283e-03
3.35276954e-02	-1.42269812e-02	9.07794532e-03
3.17800653e-02	-3.62781103e-03	1.80043146e-02
1.25510321e-02	-1.93406865e-02	1.80596131e-02
1.97078414e-02	-8.84234227e-03	1.28603980e-02
2.79137848e-02	-1.21465579e-02	2.06802959e-03
2.79210535e-02	-1.14189671e-02	1.13328445e-02
2.94674961e-02	-1.92499732e-02	1.32222901e-02
1.45733654e-02	7.04287859e-03	1.83391091e-02
3.50346780e-02	-6.78851981e-03	9.20290288e-03
1.43035060e-02	-2.20924373e-02	2.00080167e-03
3.19569584e-02	-1.07273099e-02	2.08624717e-03
1.95825989e-02	-1.76167040e-02	2.03214336e-03
3.58787863e-02	8.75559839e-03	1.94868224e-03
2.77456047e-02	7.44322735e-03	8.34475375e-03
3.03798050e-02	-1.40093008e-02	4.20209038e-03
1.82918886e-02	-3.23793941e-02	1.81269385e-02
1.24982591e-02	-3.19233086e-02	1.20235652e-02
3.40845377e-02	-1.40220033e-02	2.02750085e-03
3.31666065e-02	8.42522062e-03	1.80447572e-02
3.57902556e-02	-4.05809468e-04	2.09674481e-03
2.97833021e-02	-2.69838314e-02	9.80755103e-03
3.05384220e-02	-7.40523393e-03	9.26726767e-03
2.12423940e-02	7.88734104e-03	1.37412444e-02
5.06705477e-04	-2.05459843e-02	6.94158394e-03
5.69800072e-03	-3.20653999e-02	1.96940256e-03
1.04883738e-02	-2.25786445e-02	1.79158975e-02
1.35524784e-02	-3.83077624e-02	1.65000017e-02
3.26927213e-02	1.17846957e-02	1.44804766e-02
3.95560904e-03	-5.28587824e-03	1.80662066e-02
1.20854392e-02	-3.50600905e-02	4.38776903e-03
3.26696465e-04	-4.01071915e-02	4.88336295e-03
1.94229853e-02	4.21946709e-03	1.06906193e-02
2.94231172e-02	-2.16296746e-02	8.55303667e-03
2.71073451e-02	-2.01596315e-02	1.96080652e-03
2.57097573e-02	-2.68513235e-02	5.63006242e-03
5.53105302e-03	-6.43972096e-03	1.02028310e-02
1.62350454e-02	-2.88076000e-02	1.79793674e-02
2.18964324e-02	1.40947674e-02	1.48144286e-02
1.91536943e-02	-1.23627378e-02	1.17223395e-02
3.86317068e-02	1.06124491e-02	5.58415244e-03
1.93117411e-02	8.97439874e-03	6.29475528e-03
6.40849672e-04	-3.70023741e-02	2.03652212e-03
3.13576716e-02	-6.53699662e-03	1.42057308e-02
2.61045701e-02	-2.47019690e-02	1.73943398e-02
3.60377304e-02	6.87535189e-03	1.56966979e-02
9.38826977e-03	-3.35612754e-02	1.87007405e-03
1.10363283e-02	-3.43640792e-02	1.47588002e-02
3.00769990e-02	-2.63966162e-02	6.18149146e-03
4.66794957e-03	-3.21457236e-02	7.44162525e-03
1.13213246e-02	-3.86915916e-02	2.73102015e-03
3.92093789e-02	-7.52770923e-03	1.08004539e-02
7.37199057e-03	-3.87288814e-02	2.04785544e-03
2.25383569e-02	-1.49885184e-02	8.90058390e-03
2.67670259e-02	-1.94768276e-03	1.80224725e-02
9.46142491e-03	-3.04121603e-02	1.13578027e-02
2.84334847e-02	-7.50806605e-03	1.80866669e-02
-2.72133088e-03	-3.98252608e-02	1.13483741e-02
2.03124321e-02	-3.43870085e-02	1.49486358e-02
1.17557212e-02	-1.80357388e-02	1.27453571e-02
1.73850164e-02	-2.03719252e-02	1.03657349e-02
-3.80469091e-03	-3.99384268e-02	6.08363342e-03
2.63634990e-02	6.39766094e-03	1.71246877e-03
2.42764576e-02	1.77680009e-02	2.53160436e-03
8.85608756e-03	-2.89583341e-02	2.24447238e-03
1.05466075e-02	-4.14185964e-03	8.39356819e-03
-2.70648793e-03	-4.02072154e-02	2.16812275e-03
4.02688668e-02	6.84066956e-03	1.40901310e-02
2.78179294e-02	-1.89864239e-02	1.81065572e-02
3.27120513e-02	-2.10440886e-03	1.85141450e-03
1.96996173e-02	-2.87959504e-03	1.27374563e-02
1.24713179e-02	-2.11789023e-02	6.08271028e-03
7.15320813e-03	-3.56852335e-02	4.57364193e-03
3.61430878e-02	-1.73485225e-02	1.80512099e-02
3.00854175e-02	-1.25836611e-02	7.66419569e-03
1.32246403e-03	-3.99387684e-02	8.84882600e-03
3.95187118e-02	3.19465425e-03	2.59394131e-03
1.27077874e-02	-2.54348728e-02	9.92576051e-03
-1.83960038e-03	-3.26225878e-02	1.47603039e-02
8.78361560e-03	-1.86488226e-02	5.28466092e-03
-4.34526472e-03	-3.69202013e-02	1.38506052e-02
-2.31313870e-03	-2.56527640e-02	4.38495747e-03
1.76188796e-02	1.08348735e-02	1.82678803e-02
-6.77326547e-03	-3.83217759e-02	1.79769470e-02
2.30701848e-02	-1.68567356e-02	5.47721302e-03
3.64822952e-02	-1.66456896e-02	1.43882269e-02
1.97619602e-02	-1.48241661e-02	4.98715945e-03
8.60699738e-03	-1.90544757e-02	1.77372630e-02
3.81450535e-02	-1.28333902e-02	7.33459103e-03
2.11796941e-02	-6.01977249e-03	1.61536288e-02
-7.11980049e-03	-3.99826217e-02	9.57188972e-03
7.43868587e-03	-3.61887465e-02	1.24174524e-02
4.54157490e-03	-1.40971049e-02	1.03457533e-02
1.24280289e-02	-2.77477033e-02	1.75791570e-02
-1.51908063e-03	-3.38367510e-02	2.03526092e-03
3.65564003e-02	-4.87457239e-03	1.79740185e-02
3.52465874e-02	4.91876448e-04	1.43678223e-02
3.90369548e-02	-7.28277633e-03	1.46945342e-02
3.48469991e-02	-1.94555482e-02	7.79344009e-03
1.79162140e-02	-1.85432731e-02	5.51907409e-03
2.53936463e-02	-1.57019902e-02	1.80140625e-02
3.25946163e-02	2.76467354e-04	1.05815943e-02
1.54059843e-02	-1.63109804e-02	7.40708684e-03
9.84447025e-03	-2.32616752e-02	8.98560684e-03
3.95993155e-02	-3.08344400e-05	1.80437374e-02
2.19083205e-02	-3.31028420e-02	1.13091645e-02
1.44503302e-02	-3.29538086e-02	7.07840046e-03
2.73844533e-02	-1.82518947e-02	9.81543997e-03
9.69945312e-03	1.35916408e-03	1.80007274e-02
3.83301802e-02	-1.06189132e-02	1.44480630e-02
1.21992933e-02	-3.03151431e-02	8.46396545e-03
1.50855300e-02	-1.80372670e-02	1.51646983e-02
2.59419467e-02	-2.98627499e-02	1.75763250e-02
2.31089036e-02	1.37080210e-02	5.73024027e-03
2.12276593e-02	-2.61020964e-02	1.45758168e-02
3.64435630e-02	9.88656759e-03	1.31069037e-02
3.55867741e-02	-6.95304039e-03	2.07606730e-03
3.99342230e-02	4.66018681e-03	6.33002395e-03
2.87057091e-02	-1.00469749e-02	1.48986929e-02
2.19574190e-02	1.55096402e-02	1.06429268e-02
3.39440754e-02	8.76730291e-03	5.96910820e-03
[...]
POINT_DATA 469
SCALARS Radius double 1
LOOKUP_TABLE default
2.00000000e-03
2.00000000e-03
2.00000000e-03
2.00000000e-03
2.00000000e-03
2.00000000e-03
2.00000000e-03
2.00000000e-03
2.00000000e-03
2.00000000e-03
2.00000000e-03
2.00000000e-03
2.00000000e-03
2.00000000e-03
2.00000000e-03
2.00000000e-03
2.00000000e-03
2.00000000e-03
2.00000000e-03
2.00000000e-03
2.00000000e-03
2.00000000e-03
2.00000000e-03
2.00000000e-03
2.00000000e-03
2.00000000e-03
2.00000000e-03
2.00000000e-03
2.00000000e-03
2.00000000e-03
2.00000000e-03
2.00000000e-03
2.00000000e-03
2.00000000e-03
2.00000000e-03
2.00000000e-03
2.00000000e-03
2.00000000e-03
2.00000000e-03
2.00000000e-03
2.00000000e-03
2.00000000e-03
2.00000000e-03
2.00000000e-03
2.00000000e-03
2.00000000e-03
2.00000000e-03
2.00000000e-03
2.00000000e-03
2.00000000e-03
2.00000000e-03
2.00000000e-03
2.00000000e-03
2.00000000e-03
2.00000000e-03
2.00000000e-03
2.00000000e-03
2.00000000e-03
2.00000000e-03
2.00000000e-03
2.00000000e-03
2.00000000e-03
2.00000000e-03
2.00000000e-03
2.00000000e-03
2.00000000e-03
2.00000000e-03
2.00000000e-03
2.00000000e-03
2.00000000e-03
2.00000000e-03
2.00000000e-03
2.00000000e-03
2.00000000e-03
2.00000000e-03
2.00000000e-03
2.00000000e-03
2.00000000e-03
2.00000000e-03
2.00000000e-03
2.00000000e-03
2.00000000e-03
2.00000000e-03
2.00000000e-03
2.00000000e-03
2.00000000e-03
2.00000000e-03
2.00000000e-03
2.00000000e-03
2.00000000e-03
2.00000000e-03
2.00000000e-03
2.00000000e-03
2.00000000e-03
2.00000000e-03
2.00000000e-03
2.00000000e-03
2.00000000e-03
2.00000000e-03
2.00000000e-03
2.00000000e-03
2.00000000e-03
2.00000000e-03
2.00000000e-03
2.00000000e-03
2.00000000e-03
2.00000000e-03
2.00000000e-03
2.00000000e-03
2.00000000e-03
2.00000000e-03
2.00000000e-03
2.00000000e-03
2.00000000e-03
2.00000000e-03
2.00000000e-03
2.00000000e-03
2.00000000e-03
2.00000000e-03
2.00000000e-03
2.00000000e-03
2.00000000e-03
2.00000000e-03
2.00000000e-03
2.00000000e-03
2.00000000e-03
2.00000000e-03
2.00000000e-03
2.00000000e-03
2.00000000e-03
2.00000000e-03
2.00000000e-03
2.00000000e-03
2.00000000e-03
2.00000000e-03
2.00000000e-03
2.00000000e-03
2.00000000e-03
2.00000000e-03
2.00000000e-03
2.00000000e-03
2.00000000e-03
2.00000000e-03
2.00000000e-03
2.00000000e-03
2.00000000e-03
2.00000000e-03
2.00000000e-03
2.00000000e-03
2.00000000e-03
2.00000000e-03
2.00000000e-03
2.00000000e-03
2.00000000e-03
2.00000000e-03
2.00000000e-03
2.00000000e-03
2.00000000e-03
2.00000000e-03
2.00000000e-03
2.00000000e-03
2.00000000e-03
2.00000000e-03
2.00000000e-03
2.00000000e-03
2.00000000e-03
2.00000000e-03
2.00000000e-03
2.00000000e-03
2.00000000e-03
2.00000000e-03
2.00000000e-03
2.00000000e-03
2.00000000e-03
2.00000000e-03
2.00000000e-03
2.00000000e-03
2.00000000e-03
2.00000000e-03
2.00000000e-03
2.00000000e-03
2.00000000e-03
2.00000000e-03
2.00000000e-03
2.00000000e-03
2.00000000e-03
2.00000000e-03
2.00000000e-03
2.00000000e-03
2.00000000e-03
2.00000000e-03
2.00000000e-03
2.00000000e-03
2.00000000e-03
2.00000000e-03
2.00000000e-03
2.00000000e-03
2.00000000e-03
2.00000000e-03
2.00000000e-03
2.00000000e-03
2.00000000e-03
2.00000000e-03
2.00000000e-03
2.00000000e-03
2.00000000e-03
2.00000000e-03
2.00000000e-03
2.00000000e-03
2.00000000e-03
2.00000000e-03
2.00000000e-03
2.00000000e-03
2.00000000e-03
2.00000000e-03
2.00000000e-03
2.00000000e-03
2.00000000e-03
2.00000000e-03
2.00000000e-03
2.00000000e-03
2.00000000e-03
2.00000000e-03
2.00000000e-03
2.00000000e-03
2.00000000e-03
2.00000000e-03
2.00000000e-03
2.00000000e-03
2.00000000e-03
2.00000000e-03
2.00000000e-03
2.00000000e-03
2.00000000e-03
2.00000000e-03
2.00000000e-03
2.00000000e-03
2.00000000e-03
2.00000000e-03
2.00000000e-03
2.00000000e-03
2.00000000e-03
2.00000000e-03
2.00000000e-03
2.00000000e-03
2.00000000e-03
2.00000000e-03
2.00000000e-03
2.00000000e-03
2.00000000e-03
2.00000000e-03
2.00000000e-03
2.00000000e-03
2.00000000e-03
2.00000000e-03
2.00000000e-03
2.00000000e-03
2.00000000e-03
2.00000000e-03
2.00000000e-03
2.00000000e-03
2.00000000e-03
2.00000000e-03
2.00000000e-03
2.00000000e-03
2.00000000e-03
2.00000000e-03
2.00000000e-03
2.00000000e-03
2.00000000e-03
2.00000000e-03
2.00000000e-03
2.00000000e-03
2.00000000e-03
2.00000000e-03
2.00000000e-03
2.00000000e-03
2.00000000e-03
2.00000000e-03
2.00000000e-03
2.00000000e-03
2.00000000e-03
2.00000000e-03
2.00000000e-03
2.00000000e-03
2.00000000e-03
2.00000000e-03
2.00000000e-03
2.00000000e-03
2.00000000e-03
2.00000000e-03
2.00000000e-03
2.00000000e-03
2.00000000e-03
2.00000000e-03
2.00000000e-03
2.00000000e-03
2.00000000e-03
2.00000000e-03
2.00000000e-03
2.00000000e-03
2.00000000e-03
2.00000000e-03
2.00000000e-03
2.00000000e-03
2.00000000e-03
2.00000000e-03
2.00000000e-03
2.00000000e-03
2.00000000e-03
2.00000000e-03
2.00000000e-03
2.00000000e-03
2.00000000e-03
2.00000000e-03
2.00000000e-03
2.00000000e-03
2.00000000e-03
2.00000000e-03
2.00000000e-03
2.00000000e-03
2.00000000e-03
2.00000000e-03
2.00000000e-03
2.00000000e-03
2.00000000e-03
2.00000000e-03
2.00000000e-03
2.00000000e-03
2.00000000e-03
2.00000000e-03
2.00000000e-03
2.00000000e-03
2.00000000e-03
2.00000000e-03
2.00000000e-03
2.00000000e-03
2.00000000e-03
2.00000000e-03
2.00000000e-03
2.00000000e-03
2.00000000e-03
2.00000000e-03
2.00000000e-03
2.00000000e-03
2.00000000e-03
2.00000000e-03
2.00000000e-03
2.00000000e-03
2.00000000e-03
2.00000000e-03
2.00000000e-03
2.00000000e-03
2.00000000e-03
2.00000000e-03
2.00000000e-03
2.00000000e-03
2.00000000e-03
2.00000000e-03
2.00000000e-03
2.00000000e-03
2.00000000e-03
2.00000000e-03
2.00000000e-03
2.00000000e-03
2.00000000e-03
2.00000000e-03
2.00000000e-03
2.00000000e-03
2.00000000e-03
2.00000000e-03
2.00000000e-03
2.00000000e-03
2.00000000e-03
2.00000000e-03
2.00000000e-03
2.00000000e-03
2.00000000e-03
2.00000000e-03
2.00000000e-03
2.00000000e-03
2.00000000e-03
2.00000000e-03
2.00000000e-03
2.00000000e-03
2.00000000e-03
2.00000000e-03
2.00000000e-03
2.00000000e-03
2.00000000e-03
2.00000000e-03
2.00000000e-03
2.00000000e-03
2.00000000e-03
2.00000000e-03
2.00000000e-03
2.00000000e-03
2.00000000e-03
2.00000000e-03
2.00000000e-03
2.00000000e-03
2.00000000e-03
2.00000000e-03
2.00000000e-03
2.00000000e-03
2.00000000e-03
2.00000000e-03
2.00000000e-03
2.00000000e-03
2.00000000e-03
2.00000000e-03
2.00000000e-03
2.00000000e-03
2.00000000e-03
2.00000000e-03
2.00000000e-03
2.00000000e-03
2.00000000e-03
2.00000000e-03
2.00000000e-03
2.00000000e-03
2.00000000e-03
2.00000000e-03
2.00000000e-03
2.00000000e-03
2.00000000e-03
2.00000000e-03
2.00000000e-03
2.00000000e-03
2.00000000e-03
2.00000000e-03
2.00000000e-03
2.00000000e-03
2.00000000e-03
2.00000000e-03
2.00000000e-03
2.00000000e-03
2.00000000e-03
2.00000000e-03
2.00000000e-03
2.00000000e-03
2.00000000e-03
2.00000000e-03
2.00000000e-03
2.00000000e-03
2.00000000e-03
2.00000000e-03
2.00000000e-03
2.00000000e-03
2.00000000e-03
2.00000000e-03
2.00000000e-03
2.00000000e-03
2.00000000e-03
2.00000000e-03
2.00000000e-03
2.00000000e-03
2.00000000e-03
2.00000000e-03
2.00000000e-03
2.00000000e-03
2.00000000e-03
2.00000000e-03
2.00000000e-03
2.00000000e-03
2.00000000e-03
2.00000000e-03
2.00000000e-03
2.00000000e-03
