# vtk DataFile Version 2.0
Particle data
ASCII
DATASET POLYDATA
POINTS 469 double
3.22795341e-02	1.25328325e-02	9.32760902e-03
3.18544020e-02	1.94715665e-03	1.41159032e-02
2.91042767e-02	-7.56475184e-03	6.31859390e-03
3.75112077e-03	-3.17948661e-02	1.03369270e-02
2.23579659e-02	-5.07809458e-03	2.23130420e-03
3.42787938e-02	1.87661281e-02	3.47672929e-03
3.18278939e-02	9.84491134e-03	1.15517803e-02
8.29330149e-03	-2.79982400e-02	1.78900193e-02
3.59380727e-02	-7.49862493e-03	1.81228008e-02
1.48723905e-02	-3.60235453e-02	1.77815884e-02
2.73243791e-02	1.69776994e-02	1.69870443e-02
3.08360477e-02	3.56543054e-03	1.77398287e-02
3.52555891e-02	-1.96843411e-02	1.20715936e-02
2.64029205e-02	-5.74896303e-03	3.69735786e-03
3.20844984e-02	1.84819093e-02	1.50823175e-02
9.07457226e-03	-3.90492601e-02	9.85514328e-03
1.16264159e-02	-2.38035696e-02	6.78041803e-03
3.48219242e-02	-4.17831066e-04	2.01100403e-03
9.35807166e-03	-2.68259566e-02	1.34324067e-02
2.04202581e-02	4.99663282e-03	1.07263522e-02
1.62468363e-02	2.04588464e-03	2.11027847e-03
3.52759916e-02	-1.01312835e-02	1.76265651e-02
4.60534874e-04	-3.94665546e-02	2.32426592e-03
1.74973315e-02	-1.36906097e-02	2.08259538e-03
2.44440845e-02	-9.09000102e-03	1.98462735e-03
1.62116192e-02	-3.28316436e-02	8.82506541e-03
-7.91007950e-03	-3.01084262e-02	1.37003940e-02
3.58976492e-02	-4.64724485e-03	1.36246212e-02
-3.59018089e-03	-3.44599941e-02	1.00638559e-02
1.16417303e-02	-2.52152183e-02	1.48627194e-02
3.19534362e-02	-5.43248366e-03	1.08102728e-02
3.92259554e-02	2.83425828e-03	2.06296152e-03
3.37202955e-02	1.03368641e-03	5.68994244e-03
2.56946444e-02	-1.40109860e-02	1.80450826e-02
2.63307033e-02	-3.03731592e-02	1.10708642e-02
3.22337703e-02	-7.67553402e-03	1.16101819e-02
3.44060122e-02	1.70585569e-02	6.93940919e-03
-1.05260312e-02	-3.69248447e-02	1.03904185e-02
3.08946257e-02	4.65907976e-03	1.08597119e-02
1.90788249e-02	-8.89783425e-03	2.30744005e-03
-5.63253240e-03	-3.28728725e-02	1.12735535e-02
3.87242331e-02	2.08620723e-03	1.48472115e-02
2.50139803e-02	-3.07244886e-02	2.27937657e-03
1.73359055e-02	-8.09366228e-03	1.78950743e-02
1.95799540e-02	-2.27751870e-02	1.66828787e-02
8.42209652e-03	-1.07036921e-02	1.30882805e-02
1.64059927e-02	-1.08778208e-02	1.20150382e-02
-2.17957088e-03	-2.50762730e-02	1.25000125e-02
6.03027539e-03	-2.60480595e-02	1.11401504e-02
2.25162468e-02	4.35462644e-03	1.69760831e-02
8.78737937e-03	-2.77419189e-02	2.53717450e-03
9.25233051e-03	-2.18003503e-02	9.21723349e-03
-1.41028899e-02	-3.47405146e-02	1.14737163e-02
1.11060224e-02	-2.37602426e-02	2.54050701e-03
1.09051842e-02	-3.64867312e-02	1.07359954e-02
9.94394002e-04	-3.38087803e-02	1.52427459e-02
1.37035471e-02	-3.82483386e-02	9.25365928e-03
1.03357434e-02	-9.21713185e-03	1.36313300e-02
2.65829209e-02	-2.49318272e-02	1.47991895e-02
1.97376051e-02	-2.56593706e-02	1.51842594e-02
2.78139114e-02	-2.34823481e-02	1.78074210e-02
2.54879039e-02	-1.68813264e-02	1.08202338e-02
2.06859305e-02	-1.08487766e-02	1.83601503e-02
2.32303816e-03	-3.66397592e-02	9.62956291e-03
3.26178935e-02	-9.64611051e-03	4.58109547e-03
2.09082701e-02	9.17815807e-03	1.21928150e-02
2.12960671e-02	-3.41780010e-02	3.73557666e-03
3.16051288e-02	2.38143245e-04	1.83892277e-02
2.07793247e-02	-3.09664095e-02	6.37673762e-03
3.46825013e-02	-1.99568432e-02	9.84407286e-03
9.56106637e-06	-2.41983409e-02	4.50358136e-03
3.68133114e-02	-9.85155339e-03	2.58433801e-03
3.04385665e-02	1.39745631e-02	1.82404197e-02
-1.13295202e-02	-2.69003629e-02	9.30976770e-03
3.86478916e-02	8.23179272e-03	6.40630810e-03
-2.00424342e-03	-2.85865751e-02	1.77150974e-02
7.93401460e-03	-2.71112923e-02	7.14450864e-03
2.75302781e-02	5.28345861e-03	1.00717354e-02
3.37785390e-02	-2.14890996e-02	1.79510769e-02
8.55542953e-03	-3.80691260e-02	1.78849589e-02
6.69382455e-03	-1.56039525e-02	9.59421740e-03
2.74588846e-02	-1.50198800e-02	6.90640002e-03
2.50546790e-02	-1.73259481e-02	2.16148186e-03
2.17411752e-02	-1.89998145e-02	1.79191240e-02
2.64755986e-02	-2.01210131e-02	2.36515493e-03
1.24766114e-02	4.70388281e-03	1.94005277e-03
3.57213698e-02	4.18875555e-03	1.43522736e-02
4.23286757e-03	-4.01716587e-02	1.10242192e-02
3.10100446e-02	-1.95572474e-02	6.40061712e-03
1.67206228e-02	-3.01741732e-02	4.21646045e-03
-3.23771322e-03	-2.02873903e-02	7.60359234e-03
2.62851084e-02	7.71521614e-03	1.92900441e-03
3.67026473e-02	-8.65588135e-03	6.37545624e-03
-1.16583159e-02	-2.83708430e-02	2.54251351e-03
3.02362948e-02	-3.87037192e-03	6.67600655e-03
3.85095529e-02	-8.83314573e-03	8.13779966e-03
1.99612555e-03	-3.96504215e-02	5.97661276e-03
1.79491819e-02	-3.17901405e-02	1.32428992e-02
2.41159460e-02	-9.85619823e-03	1.84466557e-02
2.55431731e-02	-6.51038806e-03	7.41123798e-03
1.52903149e-02	-2.89211634e-02	7.60356567e-03
1.69913089e-02	-2.86194381e-02	1.15162337e-02
-5.08176551e-03	-3.44376477e-02	1.60726222e-02
3.57044723e-02	-1.73977478e-02	1.68359583e-02
1.98430385e-02	-2.70916658e-02	7.19986972e-03
1.55804790e-03	-1.94390778e-02	3.14502154e-03
1.52190471e-02	-2.09371143e-02	6.81164644e-03
1.38565701e-02	-2.67081184e-02	5.14643148e-03
1.75873666e-02	-3.30005989e-02	1.51678913e-03
2.56477287e-02	2.96580723e-03	4.88486262e-03
1.07112901e-02	-3.79009866e-02	2.19599570e-03
1.23182244e-02	-2.83593971e-03	1.71063623e-02
5.15957543e-03	-1.77653903e-02	1.61752436e-02
5.21193217e-03	-3.36334628e-02	2.08770493e-03
2.80860109e-02	-1.75175625e-02	1.42638811e-02
2.17210517e-02	-2.56711457e-02	1.97366773e-03
-1.80153775e-02	-3.13901857e-02	1.52246314e-02
1.30060312e-02	-3.74868987e-02	5.43560583e-03
2.88976723e-02	-3.61012380e-03	1.00055085e-02
3.87840913e-02	3.70828040e-03	7.74787830e-03
2.39953178e-02	9.64271993e-03	1.93123259e-03
1.96446139e-02	-1.34357895e-02	1.39632000e-02
2.50615238e-02	1.51272658e-02	1.56192617e-02
3.27706743e-02	-2.30488760e-02	5.49244497e-03
3.72889975e-02	-1.42161175e-02	1.82000105e-02
1.64824673e-02	3.82768398e-03	7.24161723e-03
3.61017249e-02	1.29729062e-02	6.39934981e-03
3.11161470e-02	5.43777104e-03	7.35154231e-03
4.95705109e-04	-3.50063160e-02	1.14967571e-02
1.96383093e-03	-2.55287410e-02	1.93605174e-03
2.13638088e-03	-3.05898169e-02	2.86183681e-03
3.74563217e-02	-1.37682335e-02	4.72994198e-03
1.48579930e-02	-4.53631465e-03	1.76267837e-02
3.61009783e-02	1.70458182e-03	1.38671073e-02
1.58549053e-02	-1.42647270e-02	7.19533289e-03
3.02575966e-02	-2.60369746e-02	1.37939806e-02
3.17781792e-02	-2.63758389e-03	4.11274907e-03
3.22809421e-02	1.47966970e-02	1.98032919e-03
1.62768027e-02	-2.00029152e-02	1.12453616e-02
5.82135156e-03	-2.77365451e-02	1.66290161e-02
2.58205153e-02	-2.16268738e-02	1.52424900e-02
1.98959797e-02	8.10500333e-03	4.83215421e-03
1.75547044e-02	-1.81451423e-03	1.29691788e-02
-1.38951247e-02	-3.62297667e-02	2.39487580e-03
2.89660662e-02	1.02555482e-02	8.93120519e-03
2.10162104e-02	9.85403710e-03	1.83085995e-03
4.01444542e-03	-4.07933759e-02	2.11090123e-03
2.88287897e-02	1.70936916e-02	2.08408673e-03
1.93958556e-02	-1.49991699e-02	8.27630548e-03
1.55871565e-02	-2.89946811e-02	1.54176223e-02
1.98809556e-02	-2.81660097e-03	7.91032530e-03
1.89963152e-02	-2.12302513e-02	8.36612459e-03
3.75839113e-02	1.12284693e-02	1.21792522e-02
1.71315138e-03	-1.45625263e-02	1.54518300e-02
5.09562777e-03	-3.10370816e-02	8.97297873e-03
5.56730091e-03	-3.48731783e-02	1.37205595e-02
3.75967135e-02	1.07503441e-02	3.80822510e-03
2.07401419e-02	-7.29389952e-03	5.27376828e-03
3.37616980e-02	-2.06390688e-02	1.44976569e-02
2.33268929e-02	1.58362250e-03	2.10388575e-03
3.50633163e-02	-5.06451845e-03	7.58873615e-03
3.62503882e-02	1.48369697e-02	1.81374123e-03
3.02696878e-02	-2.31432068e-02	9.15166548e-03
-2.52754729e-03	-3.37180963e-02	1.83255231e-02
2.20510909e-02	-1.48379277e-02	2.24962383e-03
2.91102760e-02	2.21176598e-03	1.25194010e-02
2.65773253e-03	-2.97569855e-02	5.89243235e-03
2.39129113e-02	1.36869441e-02	5.78377823e-03
1.36565109e-03	-3.62523011e-02	1.78547840e-02
7.30568995e-03	-3.90014116e-02	5.79899826e-03
3.50981054e-02	1.47498690e-02	1.00864282e-02
2.19226293e-02	-2.94837150e-02	1.05599770e-02
4.37804420e-04	-2.18265735e-02	1.52595418e-02
3.25121274e-02	5.92549818e-03	1.51938533e-02
2.62753788e-02	1.04708526e-02	6.18953234e-03
3.48888154e-02	8.18144472e-03	1.18491649e-02
3.90660041e-02	-4.06193525e-04	1.78018226e-03
3.30049671e-02	-1.48592283e-02	1.79564019e-02
3.87216313e-02	8.61435074e-03	1.80335555e-02
2.25115837e-02	-1.71094326e-02	6.98606884e-03
-3.28482790e-03	-3.36581509e-02	4.89811167e-03
2.77436930e-02	-1.84631881e-02	5.02625293e-03
2.71221487e-02	5.88192185e-03	1.84689597e-02
-4.92215419e-03	-3.85604569e-02	1.36910783e-02
2.76681341e-02	-1.08391398e-02	1.19064417e-02
3.85392349e-02	8.70840102e-03	9.58570984e-03
2.62998761e-02	9.39139663e-03	1.26461978e-02
3.89394441e-02	-3.14639299e-03	1.44584202e-02
2.13296054e-02	-4.10713724e-03	1.76938137e-02
3.84536563e-02	6.40033722e-03	1.37735770e-03
8.65601693e-03	-3.75637885e-02	1.50438339e-02
2.42305726e-02	-1.57871167e-02	1.44819407e-02
1.38978990e-03	-3.96174979e-02	1.56288395e-02
-1.40711896e-02	-3.64404503e-02	1.69357089e-02
2.34255059e-02	-9.17432048e-03	5.76615884e-03
2.99648149e-03	-3.03754309e-02	1.42447321e-02
3.11474296e-02	-1.41287031e-02	1.05755267e-02
1.20039134e-02	-2.77199269e-02	8.84275709e-03
1.30045002e-02	-9.64393407e-03	8.45687997e-03
1.69298442e-02	-3.15704985e-02	1.81725680e-02
-3.50716340e-03	-1.79445257e-02	1.30501041e-02
3.75901800e-03	-1.48859800e-02	1.20134969e-02
3.81198285e-03	-3.94724735e-02	1.78734317e-02
3.69701963e-02	-1.45811457e-02	1.15410508e-02
1.41127629e-02	-3.55376514e-02	1.46072111e-02
4.52945034e-03	-1.93210146e-02	7.10825582e-03
-3.67752628e-03	-3.12788871e-02	1.35349938e-02
-4.75629180e-03	-3.05509659e-02	7.19237901e-03
3.18688444e-02	-5.13322493e-03	1.41665049e-02
-1.88657778e-04	-2.96968776e-02	1.12504134e-02
2.72952873e-02	-2.98419062e-02	1.50620890e-02
1.71317612e-02	-2.60974333e-02	2.17042704e-03
2.35937390e-02	-2.81851311e-02	1.41087410e-02
2.26117214e-02	-2.39664444e-02	1.41226325e-02
3.31308425e-02	-1.36452944e-03	1.49869105e-02
2.86866196e-02	-8.57783542e-03	2.20056957e-03
[...]
POINT_DATA 469
SCALARS Radius double 1
LOOKUP_TABLE default
2.00000000e-03
2.00000000e-03
2.00000000e-03
2.00000000e-03
2.00000000e-03
2.00000000e-03
2.00000000e-03
2.00000000e-03
2.00000000e-03
2.00000000e-03
2.00000000e-03
2.00000000e-03
2.00000000e-03
2.00000000e-03
2.00000000e-03
2.00000000e-03
2.00000000e-03
2.00000000e-03
2.00000000e-03
2.00000000e-03
2.00000000e-03
2.00000000e-03
2.00000000e-03
2.00000000e-03
2.00000000e-03
2.00000000e-03
2.00000000e-03
2.00000000e-03
2.00000000e-03
2.00000000e-03
2.00000000e-03
2.00000000e-03
2.00000000e-03
2.00000000e-03
2.00000000e-03
2.00000000e-03
2.00000000e-03
2.00000000e-03
2.00000000e-03
2.00000000e-03
2.00000000e-03
2.00000000e-03
2.00000000e-03
2.00000000e-03
2.00000000e-03
2.00000000e-03
2.00000000e-03
2.00000000e-03
2.00000000e-03
2.00000000e-03
2.00000000e-03
2.00000000e-03
2.00000000e-03
2.00000000e-03
2.00000000e-03
2.00000000e-03
2.00000000e-03
2.00000000e-03
2.00000000e-03
2.00000000e-03
2.00000000e-03
2.00000000e-03
2.00000000e-03
2.00000000e-03
2.00000000e-03
2.00000000e-03
2.00000000e-03
2.00000000e-03
2.00000000e-03
2.00000000e-03
2.00000000e-03
2.00000000e-03
2.00000000e-03
2.00000000e-03
2.00000000e-03
2.00000000e-03
2.00000000e-03
2.00000000e-03
2.00000000e-03
2.00000000e-03
2.00000000e-03
2.00000000e-03
2.00000000e-03
2.00000000e-03
2.00000000e-03
2.00000000e-03
2.00000000e-03
2.00000000e-03
2.00000000e-03
2.00000000e-03
2.00000000e-03
2.00000000e-03
2.00000000e-03
2.00000000e-03
2.00000000e-03
2.00000000e-03
2.00000000e-03
2.00000000e-03
2.00000000e-03
2.00000000e-03
2.00000000e-03
2.00000000e-03
2.00000000e-03
2.00000000e-03
2.00000000e-03
2.00000000e-03
2.00000000e-03
2.00000000e-03
2.00000000e-03
2.00000000e-03
2.00000000e-03
2.00000000e-03
2.00000000e-03
2.00000000e-03
2.00000000e-03
2.00000000e-03
2.00000000e-03
2.00000000e-03
2.00000000e-03
2.00000000e-03
2.00000000e-03
2.00000000e-03
2.00000000e-03
2.00000000e-03
2.00000000e-03
2.00000000e-03
2.00000000e-03
2.00000000e-03
2.00000000e-03
2.00000000e-03
2.00000000e-03
2.00000000e-03
2.00000000e-03
2.00000000e-03
2.00000000e-03
2.00000000e-03
2.00000000e-03
2.00000000e-03
2.00000000e-03
2.00000000e-03
2.00000000e-03
2.00000000e-03
2.00000000e-03
2.00000000e-03
2.00000000e-03
2.00000000e-03
2.00000000e-03
2.00000000e-03
2.00000000e-03
2.00000000e-03
2.00000000e-03
2.00000000e-03
2.00000000e-03
2.00000000e-03
2.00000000e-03
2.00000000e-03
2.00000000e-03
2.00000000e-03
2.00000000e-03
2.00000000e-03
2.00000000e-03
2.00000000e-03
2.00000000e-03
2.00000000e-03
2.00000000e-03
2.00000000e-03
2.00000000e-03
2.00000000e-03
2.00000000e-03
2.00000000e-03
2.00000000e-03
2.00000000e-03
2.00000000e-03
2.00000000e-03
2.00000000e-03
2.00000000e-03
2.00000000e-03
2.00000000e-03
2.00000000e-03
2.00000000e-03
2.00000000e-03
2.00000000e-03
2.00000000e-03
2.00000000e-03
2.00000000e-03
2.00000000e-03
2.00000000e-03
2.00000000e-03
2.00000000e-03
2.00000000e-03
2.00000000e-03
2.00000000e-03
2.00000000e-03
2.00000000e-03
2.00000000e-03
2.00000000e-03
2.00000000e-03
2.00000000e-03
2.00000000e-03
2.00000000e-03
2.00000000e-03
2.00000000e-03
2.00000000e-03
2.00000000e-03
2.00000000e-03
2.00000000e-03
2.00000000e-03
2.00000000e-03
2.00000000e-03
2.00000000e-03
2.00000000e-03
2.00000000e-03
2.00000000e-03
2.00000000e-03
2.00000000e-03
2.00000000e-03
2.00000000e-03
2.00000000e-03
2.00000000e-03
2.00000000e-03
2.00000000e-03
2.00000000e-03
2.00000000e-03
2.00000000e-03
2.00000000e-03
2.00000000e-03
2.00000000e-03
2.00000000e-03
2.00000000e-03
2.00000000e-03
2.00000000e-03
2.00000000e-03
2.00000000e-03
2.00000000e-03
2.00000000e-03
2.00000000e-03
2.00000000e-03
2.00000000e-03
2.00000000e-03
2.00000000e-03
2.00000000e-03
2.00000000e-03
2.00000000e-03
2.00000000e-03
2.00000000e-03
2.00000000e-03
2.00000000e-03
2.00000000e-03
2.00000000e-03
2.00000000e-03
2.00000000e-03
2.00000000e-03
2.00000000e-03
2.00000000e-03
2.00000000e-03
2.00000000e-03
2.00000000e-03
2.00000000e-03
2.00000000e-03
2.00000000e-03
2.00000000e-03
2.00000000e-03
2.00000000e-03
2.00000000e-03
2.00000000e-03
2.00000000e-03
2.00000000e-03
2.00000000e-03
2.00000000e-03
2.00000000e-03
2.00000000e-03
2.00000000e-03
2.00000000e-03
2.00000000e-03
2.00000000e-03
2.00000000e-03
2.00000000e-03
2.00000000e-03
2.00000000e-03
2.00000000e-03
2.00000000e-03
2.00000000e-03
2.00000000e-03
2.00000000e-03
2.00000000e-03
2.00000000e-03
2.00000000e-03
2.00000000e-03
2.00000000e-03
2.00000000e-03
2.00000000e-03
2.00000000e-03
2.00000000e-03
2.00000000e-03
2.00000000e-03
2.00000000e-03
2.00000000e-03
2.00000000e-03
2.00000000e-03
2.00000000e-03
2.00000000e-03
2.00000000e-03
2.00000000e-03
2.00000000e-03
2.00000000e-03
2.00000000e-03
2.00000000e-03
2.00000000e-03
2.00000000e-03
2.00000000e-03
2.00000000e-03
2.00000000e-03
2.00000000e-03
2.00000000e-03
2.00000000e-03
2.00000000e-03
2.00000000e-03
2.00000000e-03
2.00000000e-03
2.00000000e-03
2.00000000e-03
2.00000000e-03
2.00000000e-03
2.00000000e-03
2.00000000e-03
2.00000000e-03
2.00000000e-03
2.00000000e-03
2.00000000e-03
2.00000000e-03
2.00000000e-03
2.00000000e-03
2.00000000e-03
2.00000000e-03
2.00000000e-03
2.00000000e-03
2.00000000e-03
2.00000000e-03
2.00000000e-03
2.00000000e-03
2.00000000e-03
2.00000000e-03
2.00000000e-03
2.00000000e-03
2.00000000e-03
2.00000000e-03
2.00000000e-03
2.00000000e-03
2.00000000e-03
2.00000000e-03
2.00000000e-03
2.00000000e-03
2.00000000e-03
2.00000000e-03
2.00000000e-03
2.00000000e-03
2.00000000e-03
2.00000000e-03
2.00000000e-03
2.00000000e-03
2.00000000e-03
2.00000000e-03
2.00000000e-03
2.00000000e-03
2.00000000e-03
2.00000000e-03
2.00000000e-03
2.00000000e-03
2.00000000e-03
2.00000000e-03
2.00000000e-03
2.00000000e-03
2.00000000e-03
2.00000000e-03
2.00000000e-03
2.00000000e-03
2.00000000e-03
2.00000000e-03
2.00000000e-03
2.00000000e-03
2.00000000e-03
2.00000000e-03
2.00000000e-03
2.00000000e-03
2.00000000e-03
2.00000000e-03
2.00000000e-03
2.00000000e-03
2.00000000e-03
2.00000000e-03
2.00000000e-03
2.00000000e-03
2.00000000e-03
2.00000000e-03
2.00000000e-03
2.00000000e-03
2.00000000e-03
2.00000000e-03
2.00000000e-03
2.00000000e-03
2.00000000e-03
2.00000000e-03
2.00000000e-03
2.00000000e-03
2.00000000e-03
2.00000000e-03
2.00000000e-03
2.00000000e-03
2.00000000e-03
2.00000000e-03
2.00000000e-03
2.00000000e-03
2.00000000e-03
2.00000000e-03
2.00000000e-03
2.00000000e-03
2.00000000e-03
2.00000000e-03
2.00000000e-03
2.00000000e-03
2.00000000e-03
2.00000000e-03
2.00000000e-03
2.00000000e-03
2.00000000e-03
2.00000000e-03
2.00000000e-03
2.00000000e-03
2.00000000e-03
2.00000000e-03
2.00000000e-03
2.00000000e-03
2.00000000e-03
2.00000000e-03
2.00000000e-03
2.00000000e-03
2.00000000e-03
2.00000000e-03
2.00000000e-03
2.00000000e-03
2.00000000e-03
2.00000000e-03
2.00000000e-03
2.00000000e-03
2.00000000e-03
2.00000000e-03
2.00000000e-03
2.00000000e-03
2.00000000e-03
2.00000000e-03
2.00000000e-03
2.00000000e-03
2.00000000e-03
2.00000000e-03
2.00000000e-03
2.00000000e-03
2.00000000e-03
2.00000000e-03
2.00000000e-03
2.00000000e-03
2.00000000e-03
2.00000000e-03
2.00000000e-03
2.00000000e-03
2.00000000e-03
2.00000000e-03
2.00000000e-03
2.00000000e-03
2.00000000e-03
