# vtk DataFile Version 2.0
Particle data
ASCII
DATASET POLYDATA
POINTS 469 double
2.47696869e-02	-2.67195759e-02	8.63984171e-03
1.38783886e-02	-2.98035803e-02	1.29374101e-02
4.52941839e-03	-2.74588862e-02	3.94366870e-03
3.73451001e-02	1.27926075e-02	1.79592856e-02
1.01394431e-02	-2.63078274e-02	2.50820566e-03
2.86435147e-02	-2.89584175e-02	2.65601869e-03
2.22128319e-02	-2.59730212e-02	1.14175137e-02
2.65675596e-02	-4.54140795e-03	1.77936588e-02
5.99647901e-03	-3.53188091e-02	1.80322560e-02
1.64531862e-02	7.02302150e-03	1.51352541e-02
3.31319482e-02	-2.15149860e-02	1.82977728e-02
1.57710861e-02	-2.81723775e-02	1.80367812e-02
-8.54880617e-03	-4.08491192e-02	1.14510598e-02
7.61147926e-03	-2.22054929e-02	2.04530403e-03
3.08769473e-02	-2.48527181e-02	1.46558068e-02
2.87580260e-02	7.02412373e-03	1.25698418e-02
3.55672269e-02	6.57424285e-03	1.46452805e-02
1.15333072e-02	-3.51872701e-02	2.22578700e-03
3.06389574e-02	-3.69750955e-03	1.30616421e-02
3.34902677e-02	-1.84039394e-02	1.10237931e-02
3.40134035e-02	-1.38367132e-02	2.07155740e-03
3.43607351e-04	-3.56691939e-02	1.80363770e-02
3.23366570e-02	1.51398923e-02	1.15801182e-02
1.78820149e-02	-9.97686167e-03	2.19618752e-03
8.18971088e-03	-1.57918647e-02	2.12145358e-03
3.03879269e-02	1.76568049e-02	1.43079979e-02
3.90781161e-02	-8.29415535e-03	1.40195302e-02
6.81468589e-03	-3.66894038e-02	1.36243498e-02
3.96640319e-02	6.16968512e-03	1.55498844e-02
1.82973924e-02	-1.68906738e-02	1.39147090e-02
6.93026417e-03	-3.37592237e-02	1.12604401e-02
1.74898352e-02	-3.62124985e-02	2.16466980e-03
1.23881976e-02	-3.41398083e-02	5.55382433e-03
8.57149164e-03	-1.72368225e-02	1.76235903e-02
8.76151653e-03	-1.12154287e-02	8.47758643e-03
2.95042965e-03	-3.18374980e-02	1.17310534e-02
2.99282897e-02	-2.75751255e-02	6.83150323e-03
3.65101799e-02	-3.07523398e-03	9.18805018e-03
1.74357521e-02	-2.75956497e-02	1.12395218e-02
1.40244290e-02	-1.34443174e-02	3.29284457e-03
3.55040506e-02	-6.66898672e-03	8.06588822e-03
1.47176774e-02	-3.80030414e-02	1.54983607e-02
-3.97569023e-03	-2.13626065e-02	2.22721245e-03
2.03598490e-02	-2.02361693e-02	1.42974547e-02
3.23427956e-02	1.18189141e-02	1.49838079e-02
3.38368092e-02	-1.40175135e-02	1.15601130e-02
2.68804045e-02	-1.55051923e-02	1.39871288e-02
2.47028419e-02	-1.42775422e-02	6.40760482e-03
2.17109769e-02	-7.66322345e-03	1.25006798e-02
2.10206876e-02	-2.12139628e-02	1.82004967e-02
1.78026341e-02	-1.71945847e-02	1.59617500e-03
1.73894593e-02	-1.38409194e-02	4.48150174e-03
3.47453402e-02	9.23823982e-03	1.76316743e-02
2.56925471e-02	-5.76890616e-03	7.19386655e-03
3.09508161e-02	1.71949108e-02	4.97883284e-03
3.96770527e-02	1.55824749e-03	1.42179461e-02
2.12124242e-02	7.58470185e-03	1.05536501e-02
3.02289981e-02	-1.41459148e-02	1.53034192e-02
2.36549463e-02	1.01498541e-02	1.32156022e-02
1.51528597e-02	1.56205068e-03	1.72560277e-02
-3.17530111e-03	-2.08261220e-02	1.80043804e-02
1.70531408e-02	-8.39177184e-03	1.11959745e-02
1.88624453e-02	-1.75075401e-02	1.82612469e-02
3.59300552e-02	3.86500389e-03	1.11800495e-02
5.79873673e-04	-3.34907477e-02	4.83912137e-03
3.64839189e-02	-1.62008624e-02	6.74950400e-03
-3.25551048e-03	-1.66707111e-02	7.32798659e-03
1.25333223e-02	-2.94553789e-02	1.78700592e-02
2.74807894e-02	1.54754629e-02	1.07660526e-02
-4.79244376e-03	-3.11175939e-02	9.84277025e-03
3.90112372e-02	-6.08910090e-03	6.53268394e-03
1.61338798e-03	-3.69267484e-02	2.02245803e-03
2.81305706e-02	-2.10262781e-02	1.80574306e-02
3.48133282e-02	-1.12240230e-02	8.74704298e-03
2.01991754e-02	-3.38093120e-02	5.75048002e-03
3.81591325e-02	-1.06690496e-02	1.83558918e-02
3.25143678e-02	-3.46359197e-03	6.14133988e-03
1.81929523e-02	-2.49953983e-02	9.60299058e-03
-1.08550683e-02	-3.63244076e-02	1.70238504e-02
2.20662778e-02	-2.73830221e-03	1.80938541e-02
3.00707641e-02	-1.29977068e-02	5.54406446e-03
1.19714316e-02	-1.37653617e-02	7.83915026e-03
1.06252068e-02	-4.04924143e-03	1.86759318e-03
8.57901889e-03	-1.16458854e-02	1.79702438e-02
9.14119432e-03	-9.24469428e-03	3.55548034e-03
3.66617325e-02	-1.71416839e-02	1.94657090e-03
1.90412151e-02	-3.14285382e-02	1.47542454e-02
3.46214164e-02	1.04297682e-02	1.31914283e-02
1.66249051e-03	-2.05077088e-02	6.37824107e-03
2.76793544e-02	7.01889606e-04	6.04353116e-03
3.40221633e-02	-1.22961933e-02	5.16005168e-03
2.10889472e-02	-2.33447600e-02	1.96428030e-03
1.58445633e-03	-3.60565375e-02	6.01483779e-03
3.88637494e-02	-7.29797643e-03	9.71096255e-03
6.05714290e-03	-2.83347185e-02	8.59518207e-03
4.58058718e-03	-4.06027365e-02	8.36263850e-03
3.46598272e-02	7.87394884e-03	8.32045512e-03
2.18972992e-02	7.63752595e-03	1.84055977e-02
1.34128710e-02	-1.44352187e-02	1.78078114e-02
1.13955314e-02	-2.02597543e-02	9.46491401e-03
2.48045497e-02	4.53659542e-03	2.40383899e-03
2.68463166e-02	1.00716945e-03	9.66279369e-03
3.49772461e-02	3.25803629e-03	1.38841079e-02
-7.57886530e-03	-3.80381280e-02	1.65824377e-02
2.64607550e-02	1.03697076e-02	1.00385101e-02
2.31689485e-02	-1.25746676e-02	1.66296799e-03
2.77920737e-02	7.43458246e-03	1.90589132e-03
1.98204250e-02	-8.42227698e-03	4.28094228e-03
3.01980273e-03	-7.19416682e-03	1.97498766e-03
1.32716992e-02	-2.54673463e-02	4.94530491e-03
2.81700888e-02	4.42531677e-03	4.60613707e-03
3.57623084e-02	-1.07846655e-02	1.79095717e-02
2.99341417e-02	-1.55828044e-02	1.18760866e-02
3.36250126e-02	6.54809895e-03	1.91113465e-03
3.30835482e-03	-1.82909169e-02	1.43909389e-02
2.31372946e-02	1.03531393e-02	2.01058714e-03
3.92000814e-02	-9.88707845e-04	1.06115825e-02
2.01399333e-02	-1.21541198e-03	9.42096133e-03
8.80554591e-03	-2.93904964e-02	1.09593429e-02
1.56325368e-02	-3.84905739e-02	5.84833544e-03
2.63385294e-02	-1.88121365e-02	1.94222400e-03
1.46574112e-02	-1.67533742e-02	1.65100065e-02
3.54745045e-02	-1.77603906e-02	1.77102102e-02
-8.74797318e-03	-3.31070431e-02	7.86748602e-03
-3.72121108e-03	-3.99266849e-02	1.81149963e-02
3.37938521e-02	-1.73732267e-02	4.54456149e-03
2.68548399e-02	-3.02578295e-02	5.42583757e-03
1.61509261e-02	-2.79059220e-02	7.57447557e-03
3.69411907e-02	5.20387924e-04	9.07464943e-03
3.15638451e-02	-1.90263813e-03	2.08644744e-03
3.60460870e-02	-3.81436561e-03	5.38757656e-03
-1.87867796e-03	-4.11921044e-02	4.70675764e-03
3.14414728e-02	-1.09369063e-02	1.83102259e-02
1.28116555e-02	-3.32453562e-02	1.27611884e-02
1.50623888e-02	-1.71253483e-02	9.82218190e-03
4.12981399e-03	-1.12758358e-02	7.95064006e-03
6.93562540e-03	-3.25172413e-02	3.87655873e-03
2.55843743e-02	-2.79606039e-02	2.30323282e-03
2.32318118e-02	2.87971710e-03	1.39182292e-02
3.55707162e-02	-3.93261089e-03	1.75609014e-02
2.20610772e-03	-1.28451574e-02	1.56210873e-02
3.06652531e-02	-1.78208685e-02	2.51376247e-03
3.15659404e-02	-1.80025153e-02	1.42697182e-02
4.02452998e-02	-6.13244004e-04	5.82899648e-03
2.54379889e-02	-2.28642458e-02	8.56441564e-03
3.40982290e-02	-2.05255432e-02	2.32570759e-03
3.35701308e-02	1.50786467e-02	9.87051896e-03
3.12824273e-02	-2.46542239e-02	2.06552082e-03
2.24028120e-02	-7.33335688e-03	6.48350312e-03
1.24797928e-02	-6.13625231e-03	1.79346535e-02
2.73893480e-02	-1.91105225e-02	1.08880241e-02
2.58056234e-02	7.90751171e-03	1.85078765e-02
2.44504045e-02	-3.24934421e-02	1.14287147e-02
3.75167397e-02	-1.25302413e-02	1.50798195e-02
2.17771878e-02	-1.61260827e-02	1.16528403e-02
2.52966464e-02	-1.02580251e-02	1.03449377e-02
2.37015991e-02	-3.28029869e-02	5.80153771e-03
9.72682284e-03	-2.36941747e-02	5.84883498e-03
-1.13457083e-02	-3.81096769e-02	1.42703081e-02
2.50005367e-02	-1.60917197e-02	2.21396028e-03
6.22143570e-03	-3.66371130e-02	7.00712760e-03
2.55273526e-02	-3.13272604e-02	2.27816494e-03
6.36918316e-03	-5.05365179e-03	1.10476547e-02
3.43444959e-02	2.39431811e-03	1.80155570e-02
1.58911328e-02	-3.86101240e-03	2.20492271e-03
1.42325176e-02	-2.63922101e-02	1.27094564e-02
1.97570227e-02	-1.64069251e-02	7.39945747e-03
3.05994472e-02	-1.94440371e-02	5.15681011e-03
3.84692544e-02	7.17665208e-03	1.80947082e-02
2.77782390e-02	4.14487063e-03	8.68476192e-03
2.71828016e-02	-2.99814438e-02	9.40853418e-03
2.24502866e-02	9.66120211e-03	7.09992320e-03
2.47516076e-02	-1.56903333e-02	1.11285486e-02
1.71673433e-02	-2.81311751e-02	1.45482972e-02
2.03846466e-02	-2.21998502e-02	6.30300187e-03
2.12210073e-02	-3.03935304e-02	1.22005173e-02
1.05003420e-02	-3.88840029e-02	1.80061887e-03
-5.22672744e-03	-3.51850675e-02	1.73840640e-02
2.25833531e-02	-3.30378765e-02	1.79337878e-02
2.44458541e-02	-2.77989896e-03	4.68011121e-03
3.79971260e-02	1.13016219e-02	1.45435933e-02
7.97556419e-03	-1.57937896e-02	5.91278125e-03
1.66810262e-02	-2.27430449e-02	1.86012723e-02
3.60963103e-02	1.32411526e-02	6.53566618e-03
9.84002295e-03	-1.99530890e-02	1.18892518e-02
2.30922792e-02	-3.36834711e-02	9.21798254e-03
3.07722667e-02	-1.94474484e-02	1.38142787e-02
1.18794176e-02	-3.96996246e-02	1.32749282e-02
2.44082004e-02	-1.51941297e-02	1.79412373e-02
2.10917143e-02	-3.42263219e-02	2.05002672e-03
3.17334672e-02	1.33490109e-02	1.77827658e-02
1.52006800e-02	1.70062362e-04	1.30566192e-02
3.33019716e-02	1.80572651e-02	1.43303955e-02
4.01956378e-02	6.76539250e-03	7.46824615e-03
1.51245976e-02	-1.19335936e-02	6.44535093e-03
2.87578048e-02	-2.18862563e-03	1.79527768e-02
1.48218476e-02	-3.89219503e-03	1.17735038e-02
2.15518666e-02	-1.21781417e-02	1.07666140e-02
2.01164596e-02	-1.85715503e-02	9.84505877e-03
2.78169092e-02	2.11316393e-02	1.83154665e-02
3.80943713e-02	-1.13745195e-02	1.13438738e-02
3.21575943e-02	-1.55241274e-02	7.80967075e-03
3.21623609e-02	2.81868844e-03	1.02182451e-02
-3.32287009e-03	-4.00046629e-02	1.17683239e-02
3.59316820e-02	1.55731794e-02	1.50325208e-02
2.79442607e-02	-1.51736713e-02	8.08212304e-03
2.65199470e-02	-1.14985843e-02	1.40681180e-02
3.94476738e-02	-5.99955009e-03	1.73050338e-02
5.06502106e-03	-3.20970741e-02	1.49277048e-02
3.24249232e-02	-6.86384570e-03	1.46468821e-02
-1.29296403e-03	-1.73198002e-02	1.42684523e-02
2.81205629e-02	1.05388872e-02	2.19542553e-03
1.64070184e-02	4.41541745e-03	8.78327653e-03
2.67567919e-02	2.93157932e-03	1.36037338e-02
1.02208944e-02	-3.17570792e-02	1.50768948e-02
2.98180981e-03	-2.56477138e-02	4.18375192e-03
[...]
POINT_DATA 469
SCALARS Radius double 1
LOOKUP_TABLE default
2.00000000e-03
2.00000000e-03
2.00000000e-03
2.00000000e-03
2.00000000e-03
2.00000000e-03
2.00000000e-03
2.00000000e-03
2.00000000e-03
2.00000000e-03
2.00000000e-03
2.00000000e-03
2.00000000e-03
2.00000000e-03
2.00000000e-03
2.00000000e-03
2.00000000e-03
2.00000000e-03
2.00000000e-03
2.00000000e-03
2.00000000e-03
2.00000000e-03
2.00000000e-03
2.00000000e-03
2.00000000e-03
2.00000000e-03
2.00000000e-03
2.00000000e-03
2.00000000e-03
2.00000000e-03
2.00000000e-03
2.00000000e-03
2.00000000e-03
2.00000000e-03
2.00000000e-03
2.00000000e-03
2.00000000e-03
2.00000000e-03
2.00000000e-03
2.00000000e-03
2.00000000e-03
2.00000000e-03
2.00000000e-03
2.00000000e-03
2.00000000e-03
2.00000000e-03
2.00000000e-03
2.00000000e-03
2.00000000e-03
2.00000000e-03
2.00000000e-03
2.00000000e-03
2.00000000e-03
2.00000000e-03
2.00000000e-03
2.00000000e-03
2.00000000e-03
2.00000000e-03
2.00000000e-03
2.00000000e-03
2.00000000e-03
2.00000000e-03
2.00000000e-03
2.00000000e-03
2.00000000e-03
2.00000000e-03
2.00000000e-03
2.00000000e-03
2.00000000e-03
2.00000000e-03
2.00000000e-03
2.00000000e-03
2.00000000e-03
2.00000000e-03
2.00000000e-03
2.00000000e-03
2.00000000e-03
2.00000000e-03
2.00000000e-03
2.00000000e-03
2.00000000e-03
2.00000000e-03
2.00000000e-03
2.00000000e-03
2.00000000e-03
2.00000000e-03
2.00000000e-03
2.00000000e-03
2.00000000e-03
2.00000000e-03
2.00000000e-03
2.00000000e-03
2.00000000e-03
2.00000000e-03
2.00000000e-03
2.00000000e-03
2.00000000e-03
2.00000000e-03
2.00000000e-03
2.00000000e-03
2.00000000e-03
2.00000000e-03
2.00000000e-03
2.00000000e-03
2.00000000e-03
2.00000000e-03
2.00000000e-03
2.00000000e-03
2.00000000e-03
2.00000000e-03
2.00000000e-03
2.00000000e-03
2.00000000e-03
2.00000000e-03
2.00000000e-03
2.00000000e-03
2.00000000e-03
2.00000000e-03
2.00000000e-03
2.00000000e-03
2.00000000e-03
2.00000000e-03
2.00000000e-03
2.00000000e-03
2.00000000e-03
2.00000000e-03
2.00000000e-03
2.00000000e-03
2.00000000e-03
2.00000000e-03
2.00000000e-03
2.00000000e-03
2.00000000e-03
2.00000000e-03
2.00000000e-03
2.00000000e-03
2.00000000e-03
2.00000000e-03
2.00000000e-03
2.00000000e-03
2.00000000e-03
2.00000000e-03
2.00000000e-03
2.00000000e-03
2.00000000e-03
2.00000000e-03
2.00000000e-03
2.00000000e-03
2.00000000e-03
2.00000000e-03
2.00000000e-03
2.00000000e-03
2.00000000e-03
2.00000000e-03
2.00000000e-03
2.00000000e-03
2.00000000e-03
2.00000000e-03
2.00000000e-03
2.00000000e-03
2.00000000e-03
2.00000000e-03
2.00000000e-03
2.00000000e-03
2.00000000e-03
2.00000000e-03
2.00000000e-03
2.00000000e-03
2.00000000e-03
2.00000000e-03
2.00000000e-03
2.00000000e-03
2.00000000e-03
2.00000000e-03
2.00000000e-03
2.00000000e-03
2.00000000e-03
2.00000000e-03
2.00000000e-03
2.00000000e-03
2.00000000e-03
2.00000000e-03
2.00000000e-03
2.00000000e-03
2.00000000e-03
2.00000000e-03
2.00000000e-03
2.00000000e-03
2.00000000e-03
2.00000000e-03
2.00000000e-03
2.00000000e-03
2.00000000e-03
2.00000000e-03
2.00000000e-03
2.00000000e-03
2.00000000e-03
2.00000000e-03
2.00000000e-03
2.00000000e-03
2.00000000e-03
2.00000000e-03
2.00000000e-03
2.00000000e-03
2.00000000e-03
2.00000000e-03
2.00000000e-03
2.00000000e-03
2.00000000e-03
2.00000000e-03
2.00000000e-03
2.00000000e-03
2.00000000e-03
2.00000000e-03
2.00000000e-03
2.00000000e-03
2.00000000e-03
2.00000000e-03
2.00000000e-03
2.00000000e-03
2.00000000e-03
2.00000000e-03
2.00000000e-03
2.00000000e-03
2.00000000e-03
2.00000000e-03
2.00000000e-03
2.00000000e-03
2.00000000e-03
2.00000000e-03
2.00000000e-03
2.00000000e-03
2.00000000e-03
2.00000000e-03
2.00000000e-03
2.00000000e-03
2.00000000e-03
2.00000000e-03
2.00000000e-03
2.00000000e-03
2.00000000e-03
2.00000000e-03
2.00000000e-03
2.00000000e-03
2.00000000e-03
2.00000000e-03
2.00000000e-03
2.00000000e-03
2.00000000e-03
2.00000000e-03
2.00000000e-03
2.00000000e-03
2.00000000e-03
2.00000000e-03
2.00000000e-03
2.00000000e-03
2.00000000e-03
2.00000000e-03
2.00000000e-03
2.00000000e-03
2.00000000e-03
2.00000000e-03
2.00000000e-03
2.00000000e-03
2.00000000e-03
2.00000000e-03
2.00000000e-03
2.00000000e-03
2.00000000e-03
2.00000000e-03
2.00000000e-03
2.00000000e-03
2.00000000e-03
2.00000000e-03
2.00000000e-03
2.00000000e-03
2.00000000e-03
2.00000000e-03
2.00000000e-03
2.00000000e-03
2.00000000e-03
2.00000000e-03
2.00000000e-03
2.00000000e-03
2.00000000e-03
2.00000000e-03
2.00000000e-03
2.00000000e-03
2.00000000e-03
2.00000000e-03
2.00000000e-03
2.00000000e-03
2.00000000e-03
2.00000000e-03
2.00000000e-03
2.00000000e-03
2.00000000e-03
2.00000000e-03
2.00000000e-03
2.00000000e-03
2.00000000e-03
2.00000000e-03
2.00000000e-03
2.00000000e-03
2.00000000e-03
2.00000000e-03
2.00000000e-03
2.00000000e-03
2.00000000e-03
2.00000000e-03
2.00000000e-03
2.00000000e-03
2.00000000e-03
2.00000000e-03
2.00000000e-03
2.00000000e-03
2.00000000e-03
2.00000000e-03
2.00000000e-03
2.00000000e-03
2.00000000e-03
2.00000000e-03
2.00000000e-03
2.00000000e-03
2.00000000e-03
2.00000000e-03
2.00000000e-03
2.00000000e-03
2.00000000e-03
2.00000000e-03
2.00000000e-03
2.00000000e-03
2.00000000e-03
2.00000000e-03
2.00000000e-03
2.00000000e-03
2.00000000e-03
2.00000000e-03
2.00000000e-03
2.00000000e-03
2.00000000e-03
2.00000000e-03
2.00000000e-03
2.00000000e-03
2.00000000e-03
2.00000000e-03
2.00000000e-03
2.00000000e-03
2.00000000e-03
2.00000000e-03
2.00000000e-03
2.00000000e-03
2.00000000e-03
2.00000000e-03
2.00000000e-03
2.00000000e-03
2.00000000e-03
2.00000000e-03
2.00000000e-03
2.00000000e-03
2.00000000e-03
2.00000000e-03
2.00000000e-03
2.00000000e-03
2.00000000e-03
2.00000000e-03
2.00000000e-03
2.00000000e-03
2.00000000e-03
2.00000000e-03
2.00000000e-03
2.00000000e-03
2.00000000e-03
2.00000000e-03
2.00000000e-03
2.00000000e-03
2.00000000e-03
2.00000000e-03
2.00000000e-03
2.00000000e-03
2.00000000e-03
2.00000000e-03
2.00000000e-03
2.00000000e-03
2.00000000e-03
2.00000000e-03
2.00000000e-03
2.00000000e-03
2.00000000e-03
2.00000000e-03
2.00000000e-03
2.00000000e-03
2.00000000e-03
2.00000000e-03
2.00000000e-03
2.00000000e-03
2.00000000e-03
2.00000000e-03
2.00000000e-03
2.00000000e-03
2.00000000e-03
2.00000000e-03
2.00000000e-03
2.00000000e-03
2.00000000e-03
2.00000000e-03
2.00000000e-03
2.00000000e-03
2.00000000e-03
2.00000000e-03
2.00000000e-03
2.00000000e-03
2.00000000e-03
2.00000000e-03
2.00000000e-03
2.00000000e-03
2.00000000e-03
2.00000000e-03
2.00000000e-03
2.00000000e-03
2.00000000e-03
2.00000000e-03
2.00000000e-03
2.00000000e-03
2.00000000e-03
2.00000000e-03
2.00000000e-03
2.00000000e-03
2.00000000e-03
2.00000000e-03
2.00000000e-03
2.00000000e-03
2.00000000e-03
2.00000000e-03
2.00000000e-03
2.00000000e-03
2.00000000e-03
2.00000000e-03
2.00000000e-03
2.00000000e-03
2.00000000e-03
2.00000000e-03
2.00000000e-03
2.00000000e-03
2.00000000e-03
2.00000000e-03
2.00000000e-03
2.00000000e-03
2.00000000e-03
2.00000000e-03
2.00000000e-03
2.00000000e-03
2.00000000e-03
2.00000000e-03
2.00000000e-03
2.00000000e-03
2.00000000e-03
2.00000000e-03
2.00000000e-03
2.00000000e-03
2.00000000e-03
2.00000000e-03
2.00000000e-03
2.00000000e-03
2.00000000e-03
2.00000000e-03
2.00000000e-03
2.00000000e-03
2.00000000e-03
