# vtk DataFile Version 2.0
Particle data
ASCII
DATASET POLYDATA
POINTS 469 double
3.80705244e-02	1.10732027e-02	1.49969086e-02
2.52481484e-02	6.07677877e-03	1.25968937e-02
3.53811633e-02	-1.76074513e-02	1.45539262e-02
8.28295110e-03	-2.57598137e-02	1.15584307e-02
2.17359153e-02	2.94925519e-03	4.26081008e-03
3.32128815e-02	6.23669442e-04	2.17985317e-03
3.85298007e-02	-2.75574625e-03	1.66857604e-02
1.16281075e-02	-2.66338662e-02	1.72789691e-02
3.02813347e-02	-2.37092647e-02	1.68166098e-02
-1.24076405e-03	-4.18845633e-02	1.50318557e-02
3.27082315e-02	7.93704239e-03	7.34046990e-03
2.97937527e-02	3.00420966e-03	1.72008639e-02
1.75033142e-02	-3.50343424e-02	7.88164261e-03
1.98215162e-02	-4.04092206e-03	6.66130353e-03
2.84556486e-02	1.39054991e-02	1.16033067e-02
-6.08815851e-04	-3.42187540e-02	1.14704540e-02
2.08206058e-02	-6.52226104e-03	9.32099559e-03
3.22559088e-02	-1.23456668e-03	2.04456345e-03
2.10333309e-02	-1.20494553e-02	1.52925955e-02
3.65008720e-02	1.13144343e-03	5.18512499e-03
3.05521762e-02	1.23932981e-02	1.86160107e-03
3.17602295e-02	-1.72744393e-02	1.80380329e-02
-7.17730197e-03	-2.91712873e-02	1.54732458e-03
3.53091577e-02	-1.24614523e-02	5.54503983e-03
3.41525278e-02	-7.35326267e-03	5.26575632e-03
-7.60001157e-03	-4.13929162e-02	1.43649768e-02
2.85375644e-02	1.62356953e-02	1.55593659e-02
3.46265117e-02	-9.21144294e-03	1.78448172e-02
-1.11847904e-03	-3.13157941e-02	2.70582901e-03
1.61086563e-02	-2.98148812e-02	1.78330922e-02
2.82460339e-02	3.99270329e-03	9.01833910e-03
2.95742290e-02	-2.55475099e-02	9.28284989e-03
2.80795674e-02	-3.47625436e-03	8.04026575e-03
2.68943176e-02	-1.20288564e-02	1.47369360e-02
1.41966799e-02	-3.43273649e-02	9.06658506e-03
2.76090712e-02	-8.42381754e-03	1.43894845e-02
4.07563965e-02	6.51234143e-03	9.87826827e-03
1.15597325e-02	-2.42879032e-03	7.75389523e-03
3.22184848e-02	1.29078451e-04	1.40765007e-02
3.12920544e-02	6.84110079e-03	4.80759215e-03
4.28719311e-03	-1.75446474e-02	1.33972363e-02
3.20360583e-02	-1.33316518e-02	1.60996398e-02
1.02265435e-02	-3.11528780e-02	1.62902262e-03
3.52824156e-02	1.22155606e-02	1.74089184e-02
2.37129995e-02	-1.65468381e-02	1.36766762e-02
3.16084463e-02	1.42038977e-02	1.17584267e-02
2.21315443e-02	-1.87671094e-04	1.56715823e-02
2.24801122e-02	8.87608815e-03	1.53494070e-02
2.02369211e-02	-7.01048572e-03	1.40635464e-02
3.79860890e-02	1.13450963e-02	1.73566505e-02
6.83922204e-03	-2.71894193e-02	1.93343138e-03
1.60292295e-02	-1.05360166e-02	1.47774038e-02
1.79909793e-02	3.44987827e-03	1.36168088e-02
1.46344575e-02	-2.19476645e-02	2.15553800e-03
1.00221308e-02	-3.08442861e-02	5.41124431e-03
-6.83609322e-03	-3.09099939e-02	1.77727529e-02
2.54482262e-03	-3.60153603e-02	5.70613687e-03
1.77810464e-02	5.21837184e-03	1.88356308e-02
2.01227580e-02	-2.53071009e-02	1.42338294e-02
1.71286950e-02	-2.86428107e-02	1.46617120e-02
2.20838836e-02	-2.77230528e-02	1.16857368e-02
2.75473733e-02	-1.30458553e-02	1.21100076e-02
1.75163956e-02	-1.46315015e-02	1.79540303e-02
-5.01775106e-03	-3.29207332e-02	1.21025586e-02
3.08415887e-02	-1.11736363e-02	3.78162810e-03
2.75007366e-02	1.36770135e-02	7.13582464e-03
-8.74948059e-03	-4.08117442e-02	4.89286640e-03
3.04146285e-02	-4.60062702e-03	1.63287596e-02
1.11066138e-02	-3.18951042e-02	6.52914404e-03
2.24825490e-02	-2.70559008e-02	2.29297263e-03
2.11908352e-03	-2.24084630e-02	1.17174490e-02
2.86221007e-02	-2.33039107e-02	6.06634796e-03
3.91723060e-02	1.11817187e-02	1.71402256e-02
3.67787616e-02	6.94058374e-03	1.42968425e-02
3.36430574e-02	-1.80930376e-02	3.40037596e-03
3.19134868e-03	-1.94394168e-02	1.65491496e-02
1.87331985e-02	-3.01839272e-02	5.85653029e-03
3.95103749e-02	-8.25622192e-04	4.23673165e-03
1.84104188e-02	-3.58909071e-02	1.84997754e-02
3.96379083e-04	-3.05626563e-02	1.46684996e-02
1.12831123e-02	-4.42892627e-05	1.12488740e-02
1.76033225e-02	-4.86047385e-03	1.06579179e-02
2.01715588e-02	-2.08525340e-02	7.32196698e-03
2.51650902e-02	-1.40308610e-02	1.78682470e-02
2.38338297e-02	-2.70923858e-02	3.86303614e-03
3.41188382e-02	1.14952859e-02	1.80630611e-03
1.92866628e-02	3.39452425e-03	1.76389750e-02
-1.88740835e-02	-3.27412104e-02	6.29466390e-03
2.93431239e-02	-1.39587379e-02	6.10630843e-03
1.39346761e-02	-2.56168871e-02	6.09898225e-03
3.30838635e-02	1.93820778e-02	1.36259415e-02
3.35282802e-02	1.55697533e-02	4.71272694e-03
3.45292033e-02	-1.96898047e-02	9.59911573e-03
3.40770678e-02	2.11028201e-02	4.46699441e-03
3.01857041e-02	-5.65659224e-03	1.09987604e-02
2.72531177e-02	-2.83402901e-02	1.77045384e-02
-5.90240291e-03	-3.19355106e-02	7.43685284e-03
7.35908419e-03	-3.58733850e-02	1.42521747e-02
3.16294261e-02	-1.22297078e-02	1.01366025e-02
3.09404878e-02	-5.63854477e-04	1.06432131e-02
1.17559191e-02	-3.25799225e-02	1.19546561e-02
1.68718193e-02	-1.50738912e-02	1.92371750e-02
-4.36866128e-03	-2.97473034e-02	1.26093151e-02
2.67884633e-02	-2.15701620e-02	1.49363305e-02
1.71141705e-02	-3.33665944e-02	1.56937545e-02
3.77528249e-02	1.84017019e-02	1.31656506e-02
2.50931617e-02	-1.23541217e-02	8.30756810e-03
1.80740856e-02	-2.91892603e-02	1.04154752e-02
9.05828493e-03	-3.00193798e-02	1.80797067e-03
2.94157499e-02	1.08888015e-02	9.30491835e-03
1.23681273e-03	-3.86744508e-02	4.40292390e-03
2.41589330e-02	1.15800794e-02	1.83206997e-02
5.87421822e-03	-6.63010294e-03	1.55423643e-02
1.42918230e-02	-2.12447385e-02	7.39149101e-03
2.11519891e-02	-3.14465931e-02	1.84960084e-02
1.23534051e-02	-3.46225881e-02	1.70483880e-03
3.46161312e-02	1.69488271e-02	1.48233882e-02
-4.40801990e-03	-3.57527515e-02	3.07808819e-03
1.19738771e-02	-1.13007301e-02	3.20004013e-03
3.79081053e-02	-9.50665828e-03	2.05553089e-03
2.51292069e-02	1.38709592e-02	2.44290261e-03
2.84982239e-02	-1.76812631e-02	1.15779144e-02
3.68373785e-02	-2.65412254e-03	1.64544707e-02
1.88546511e-02	-3.07966793e-02	1.37167432e-03
3.45506167e-02	-2.01736291e-02	1.81234745e-02
3.59743822e-02	1.04380901e-02	1.42355200e-02
3.58711715e-02	-4.28863942e-03	5.00615819e-03
3.53267383e-02	-1.59594267e-03	1.29232156e-02
-6.17135294e-03	-3.23724981e-02	1.40078597e-02
5.83469675e-03	-8.31821394e-03	2.04443718e-03
-4.04453904e-03	-3.28280586e-02	2.23925051e-03
2.69203759e-02	-2.69627336e-02	9.64551318e-03
2.03353496e-02	8.02341922e-03	1.81744749e-02
3.61201473e-02	-8.04049283e-03	7.63519441e-03
2.68835012e-02	-2.46203556e-03	6.87691271e-03
1.46564342e-02	-3.85906213e-02	1.43384491e-02
2.55291921e-02	1.98713544e-03	7.58629938e-03
3.91615600e-02	-2.01901093e-03	3.64201279e-03
2.59433373e-02	-2.78285228e-02	1.25099063e-02
2.44071551e-02	-7.77368431e-03	1.83458251e-02
1.38606906e-02	-3.42411590e-02	1.85930220e-02
3.66265740e-02	8.50251120e-03	9.97694506e-03
2.05066413e-02	-3.53118673e-03	1.48434248e-02
2.85782408e-02	1.80875933e-02	5.40430476e-03
3.52951764e-02	5.37235652e-03	6.76614136e-03
3.65026233e-02	2.84903591e-03	2.21870919e-03
-9.74249018e-03	-3.30872122e-02	3.29311735e-03
2.99930274e-02	1.72374976e-03	2.04088818e-03
2.33450523e-02	-5.60317408e-03	1.04018805e-02
6.80518288e-03	-4.03358293e-02	1.90384600e-02
1.28676102e-02	-5.56343025e-03	1.76747247e-02
2.47931968e-02	-1.70775091e-02	8.67522071e-03
3.24382021e-02	-2.27813287e-03	9.71957885e-03
1.57953053e-02	-3.18269494e-03	1.41266482e-02
8.67887085e-03	-2.35181404e-02	1.82425431e-03
-9.96021456e-03	-3.63299431e-02	1.42100660e-02
3.50584093e-02	-5.09782817e-03	2.09194880e-03
8.40921176e-03	-1.96979434e-02	3.91144892e-03
2.07386723e-02	-3.47039643e-02	1.82949203e-02
2.69398256e-02	2.12735046e-03	4.23089979e-03
3.66287835e-02	-6.70756682e-03	9.59180665e-03
3.84651427e-02	1.02625794e-03	2.70021845e-03
1.98677802e-02	-2.57557521e-02	7.59179931e-03
-8.75607672e-03	-2.40738898e-02	1.85715211e-02
2.11206057e-02	-1.63906686e-02	5.67952372e-03
2.87520848e-02	3.75458621e-03	1.37405289e-02
1.11135562e-02	-2.60699141e-02	8.21291210e-03
3.85764909e-02	-1.67419623e-03	9.91117390e-03
1.12811082e-03	-3.44629000e-02	1.73100299e-02
-5.10726955e-03	-3.57880670e-02	6.75330662e-03
3.52276251e-02	-1.15370766e-02	1.66993404e-02
5.57339305e-03	-4.06072340e-02	2.94005041e-03
1.19943364e-02	-2.97270998e-03	1.82915623e-02
2.90456969e-02	9.06772698e-03	1.71974777e-02
3.93978122e-02	5.09929437e-03	1.75353855e-02
3.51939188e-02	-1.78646524e-02	8.69499872e-03
2.84347354e-02	-8.29044223e-03	1.37099337e-03
2.63302663e-02	-2.51043027e-02	9.40345968e-03
3.23609325e-02	-1.78817368e-02	1.51484151e-02
3.04582026e-02	-2.07876319e-02	5.45917915e-03
2.97415095e-04	-3.17141022e-02	6.90547491e-03
2.96971338e-02	-9.75222515e-03	6.91779020e-03
3.56174160e-02	1.92816741e-02	1.72472274e-02
1.62321737e-03	-1.44311640e-02	1.25835737e-02
2.96572531e-02	-8.01267997e-03	1.73061722e-02
3.46327869e-02	-6.85618474e-03	1.02952887e-02
1.50850307e-02	-1.20125220e-02	1.12616106e-03
3.43465337e-02	-1.04277473e-02	1.13915556e-02
3.39712241e-02	5.13178779e-03	1.78277353e-02
3.38335317e-02	-5.59507496e-03	2.30938192e-03
1.05472265e-02	-3.06841791e-02	9.68675705e-03
1.93448006e-02	-1.44833904e-02	1.81395892e-02
-9.04615555e-03	-2.89456704e-02	7.45073047e-03
3.45396381e-02	2.19534584e-02	1.72831684e-02
1.55315451e-02	-1.15326827e-04	2.39756899e-03
4.54369556e-03	-2.97823421e-02	1.16380504e-02
2.89830369e-02	-1.71849938e-02	1.38957047e-02
2.43996800e-02	-1.46969598e-02	9.54417515e-03
9.83825408e-03	-2.01589660e-02	8.14396719e-03
2.77366669e-03	-3.79856109e-02	1.42467752e-02
2.42662302e-02	1.05040251e-02	1.43870595e-02
8.04798784e-03	-1.06333684e-02	1.26029126e-02
-3.01640864e-03	-2.64101600e-02	1.85889233e-02
3.13006622e-02	-1.67403288e-02	1.33622879e-02
7.08825504e-03	-3.75832007e-02	1.80634261e-02
3.79488390e-03	-1.74557909e-02	4.93142655e-03
-7.33173936e-03	-2.66712551e-02	1.80051601e-02
2.53027512e-02	9.25175906e-03	3.66110000e-03
2.75803799e-02	1.01686986e-03	1.45757885e-02
9.54916461e-03	-1.74483555e-02	1.62391257e-02
1.43875841e-02	-3.37550051e-02	1.50405041e-02
1.27047221e-02	-2.68342174e-02	2.24746078e-03
9.55165297e-03	-4.12712513e-02	1.59516517e-02
2.60167095e-02	-2.04436071e-02	1.70358416e-02
2.14349783e-02	-1.11423617e-02	1.83324332e-02
2.77628757e-02	3.49071126e-04	2.86489362e-03
[...]
POINT_DATA 469
SCALARS Radius double 1
LOOKUP_TABLE default
2.00000000e-03
2.00000000e-03
2.00000000e-03
2.00000000e-03
2.00000000e-03
2.00000000e-03
2.00000000e-03
2.00000000e-03
2.00000000e-03
2.00000000e-03
2.00000000e-03
2.00000000e-03
2.00000000e-03
2.00000000e-03
2.00000000e-03
2.00000000e-03
2.00000000e-03
2.00000000e-03
2.00000000e-03
2.00000000e-03
2.00000000e-03
2.00000000e-03
2.00000000e-03
2.00000000e-03
2.00000000e-03
2.00000000e-03
2.00000000e-03
2.00000000e-03
2.00000000e-03
2.00000000e-03
2.00000000e-03
2.00000000e-03
2.00000000e-03
2.00000000e-03
2.00000000e-03
2.00000000e-03
2.00000000e-03
2.00000000e-03
2.00000000e-03
2.00000000e-03
2.00000000e-03
2.00000000e-03
2.00000000e-03
2.00000000e-03
2.00000000e-03
2.00000000e-03
2.00000000e-03
2.00000000e-03
2.00000000e-03
2.00000000e-03
2.00000000e-03
2.00000000e-03
2.00000000e-03
2.00000000e-03
2.00000000e-03
2.00000000e-03
2.00000000e-03
2.00000000e-03
2.00000000e-03
2.00000000e-03
2.00000000e-03
2.00000000e-03
2.00000000e-03
2.00000000e-03
2.00000000e-03
2.00000000e-03
2.00000000e-03
2.00000000e-03
2.00000000e-03
2.00000000e-03
2.00000000e-03
2.00000000e-03
2.00000000e-03
2.00000000e-03
2.00000000e-03
2.00000000e-03
2.00000000e-03
2.00000000e-03
2.00000000e-03
2.00000000e-03
2.00000000e-03
2.00000000e-03
2.00000000e-03
2.00000000e-03
2.00000000e-03
2.00000000e-03
2.00000000e-03
2.00000000e-03
2.00000000e-03
2.00000000e-03
2.00000000e-03
2.00000000e-03
2.00000000e-03
2.00000000e-03
2.00000000e-03
2.00000000e-03
2.00000000e-03
2.00000000e-03
2.00000000e-03
2.00000000e-03
2.00000000e-03
2.00000000e-03
2.00000000e-03
2.00000000e-03
2.00000000e-03
2.00000000e-03
2.00000000e-03
2.00000000e-03
2.00000000e-03
2.00000000e-03
2.00000000e-03
2.00000000e-03
2.00000000e-03
2.00000000e-03
2.00000000e-03
2.00000000e-03
2.00000000e-03
2.00000000e-03
2.00000000e-03
2.00000000e-03
2.00000000e-03
2.00000000e-03
2.00000000e-03
2.00000000e-03
2.00000000e-03
2.00000000e-03
2.00000000e-03
2.00000000e-03
2.00000000e-03
2.00000000e-03
2.00000000e-03
2.00000000e-03
2.00000000e-03
2.00000000e-03
2.00000000e-03
2.00000000e-03
2.00000000e-03
2.00000000e-03
2.00000000e-03
2.00000000e-03
2.00000000e-03
2.00000000e-03
2.00000000e-03
2.00000000e-03
2.00000000e-03
2.00000000e-03
2.00000000e-03
2.00000000e-03
2.00000000e-03
2.00000000e-03
2.00000000e-03
2.00000000e-03
2.00000000e-03
2.00000000e-03
2.00000000e-03
2.00000000e-03
2.00000000e-03
2.00000000e-03
2.00000000e-03
2.00000000e-03
2.00000000e-03
2.00000000e-03
2.00000000e-03
2.00000000e-03
2.00000000e-03
2.00000000e-03
2.00000000e-03
2.00000000e-03
2.00000000e-03
2.00000000e-03
2.00000000e-03
2.00000000e-03
2.00000000e-03
2.00000000e-03
2.00000000e-03
2.00000000e-03
2.00000000e-03
2.00000000e-03
2.00000000e-03
2.00000000e-03
2.00000000e-03
2.00000000e-03
2.00000000e-03
2.00000000e-03
2.00000000e-03
2.00000000e-03
2.00000000e-03
2.00000000e-03
2.00000000e-03
2.00000000e-03
2.00000000e-03
2.00000000e-03
2.00000000e-03
2.00000000e-03
2.00000000e-03
2.00000000e-03
2.00000000e-03
2.00000000e-03
2.00000000e-03
2.00000000e-03
2.00000000e-03
2.00000000e-03
2.00000000e-03
2.00000000e-03
2.00000000e-03
2.00000000e-03
2.00000000e-03
2.00000000e-03
2.00000000e-03
2.00000000e-03
2.00000000e-03
2.00000000e-03
2.00000000e-03
2.00000000e-03
2.00000000e-03
2.00000000e-03
2.00000000e-03
2.00000000e-03
2.00000000e-03
2.00000000e-03
2.00000000e-03
2.00000000e-03
2.00000000e-03
2.00000000e-03
2.00000000e-03
2.00000000e-03
2.00000000e-03
2.00000000e-03
2.00000000e-03
2.00000000e-03
2.00000000e-03
2.00000000e-03
2.00000000e-03
2.00000000e-03
2.00000000e-03
2.00000000e-03
2.00000000e-03
2.00000000e-03
2.00000000e-03
2.00000000e-03
2.00000000e-03
2.00000000e-03
2.00000000e-03
2.00000000e-03
2.00000000e-03
2.00000000e-03
2.00000000e-03
2.00000000e-03
2.00000000e-03
2.00000000e-03
2.00000000e-03
2.00000000e-03
2.00000000e-03
2.00000000e-03
2.00000000e-03
2.00000000e-03
2.00000000e-03
2.00000000e-03
2.00000000e-03
2.00000000e-03
2.00000000e-03
2.00000000e-03
2.00000000e-03
2.00000000e-03
2.00000000e-03
2.00000000e-03
2.00000000e-03
2.00000000e-03
2.00000000e-03
2.00000000e-03
2.00000000e-03
2.00000000e-03
2.00000000e-03
2.00000000e-03
2.00000000e-03
2.00000000e-03
2.00000000e-03
2.00000000e-03
2.00000000e-03
2.00000000e-03
2.00000000e-03
2.00000000e-03
2.00000000e-03
2.00000000e-03
2.00000000e-03
2.00000000e-03
2.00000000e-03
2.00000000e-03
2.00000000e-03
2.00000000e-03
2.00000000e-03
2.00000000e-03
2.00000000e-03
2.00000000e-03
2.00000000e-03
2.00000000e-03
2.00000000e-03
2.00000000e-03
2.00000000e-03
2.00000000e-03
2.00000000e-03
2.00000000e-03
2.00000000e-03
2.00000000e-03
2.00000000e-03
2.00000000e-03
2.00000000e-03
2.00000000e-03
2.00000000e-03
2.00000000e-03
2.00000000e-03
2.00000000e-03
2.00000000e-03
2.00000000e-03
2.00000000e-03
2.00000000e-03
2.00000000e-03
2.00000000e-03
2.00000000e-03
2.00000000e-03
2.00000000e-03
2.00000000e-03
2.00000000e-03
2.00000000e-03
2.00000000e-03
2.00000000e-03
2.00000000e-03
2.00000000e-03
2.00000000e-03
2.00000000e-03
2.00000000e-03
2.00000000e-03
2.00000000e-03
2.00000000e-03
2.00000000e-03
2.00000000e-03
2.00000000e-03
2.00000000e-03
2.00000000e-03
2.00000000e-03
2.00000000e-03
2.00000000e-03
2.00000000e-03
2.00000000e-03
2.00000000e-03
2.00000000e-03
2.00000000e-03
2.00000000e-03
2.00000000e-03
2.00000000e-03
2.00000000e-03
2.00000000e-03
2.00000000e-03
2.00000000e-03
2.00000000e-03
2.00000000e-03
2.00000000e-03
2.00000000e-03
2.00000000e-03
2.00000000e-03
2.00000000e-03
2.00000000e-03
2.00000000e-03
2.00000000e-03
2.00000000e-03
2.00000000e-03
2.00000000e-03
2.00000000e-03
2.00000000e-03
2.00000000e-03
2.00000000e-03
2.00000000e-03
2.00000000e-03
2.00000000e-03
2.00000000e-03
2.00000000e-03
2.00000000e-03
2.00000000e-03
2.00000000e-03
2.00000000e-03
2.00000000e-03
2.00000000e-03
2.00000000e-03
2.00000000e-03
2.00000000e-03
2.00000000e-03
2.00000000e-03
2.00000000e-03
2.00000000e-03
2.00000000e-03
2.00000000e-03
2.00000000e-03
2.00000000e-03
2.00000000e-03
2.00000000e-03
2.00000000e-03
2.00000000e-03
2.00000000e-03
2.00000000e-03
2.00000000e-03
2.00000000e-03
2.00000000e-03
2.00000000e-03
2.00000000e-03
2.00000000e-03
2.00000000e-03
2.00000000e-03
2.00000000e-03
2.00000000e-03
2.00000000e-03
2.00000000e-03
2.00000000e-03
2.00000000e-03
2.00000000e-03
2.00000000e-03
2.00000000e-03
2.00000000e-03
2.00000000e-03
2.00000000e-03
2.00000000e-03
2.00000000e-03
2.00000000e-03
2.00000000e-03
2.00000000e-03
2.00000000e-03
2.00000000e-03
2.00000000e-03
2.00000000e-03
2.00000000e-03
2.00000000e-03
2.00000000e-03
2.00000000e-03
2.00000000e-03
2.00000000e-03
2.00000000e-03
2.00000000e-03
2.00000000e-03
2.00000000e-03
2.00000000e-03
2.00000000e-03
2.00000000e-03
2.00000000e-03
2.00000000e-03
2.00000000e-03
2.00000000e-03
2.00000000e-03
2.00000000e-03
2.00000000e-03
2.00000000e-03
2.00000000e-03
2.00000000e-03
2.00000000e-03
2.00000000e-03
2.00000000e-03
2.00000000e-03
2.00000000e-03
2.00000000e-03
2.00000000e-03
2.00000000e-03
2.00000000e-03
2.00000000e-03
2.00000000e-03
2.00000000e-03
2.00000000e-03
2.00000000e-03
2.00000000e-03
2.00000000e-03
2.00000000e-03
2.00000000e-03
