# vtk DataFile Version 2.0
Particle data
ASCII
DATASET POLYDATA
POINTS 469 double
3.79935283e-02	6.38994419e-03	1.51654881e-02
2.66237191e-02	4.20654607e-03	1.30740524e-02
3.43771072e-02	-1.99990992e-02	1.47433648e-02
7.17432458e-03	-2.32878251e-02	1.12573142e-02
2.51733773e-02	5.80246180e-03	3.61455747e-03
3.33857957e-02	-2.99843229e-03	2.30446505e-03
3.74272771e-02	-7.00598499e-03	1.69909400e-02
9.87091853e-03	-2.64658980e-02	1.72883492e-02
2.74032312e-02	-2.69975746e-02	1.68431343e-02
-4.61040709e-03	-4.04686494e-02	1.51763003e-02
3.40497041e-02	5.94302163e-03	7.92116932e-03
2.98030853e-02	-1.70438665e-04	1.69883115e-02
1.40139701e-02	-3.63646991e-02	8.03382792e-03
2.39746011e-02	-1.55472370e-04	5.82726277e-03
3.09564476e-02	1.33539779e-02	1.21554329e-02
-3.19989039e-03	-3.25850562e-02	1.15227755e-02
2.06241753e-02	-7.62506573e-03	8.83430741e-03
3.22688272e-02	-3.46076509e-03	1.88098889e-03
2.01472086e-02	-1.32753181e-02	1.49578227e-02
3.73184536e-02	-1.31910031e-03	5.21062330e-03
3.19536332e-02	1.01711058e-02	1.86934966e-03
2.96106428e-02	-2.09203517e-02	1.80512554e-02
-6.90201388e-03	-2.34686658e-02	1.88261817e-03
3.39085778e-02	-1.50977290e-02	5.41248572e-03
3.37645189e-02	-1.04591783e-02	5.22999447e-03
-9.98314356e-03	-3.98173666e-02	1.41940321e-02
3.17355805e-02	1.54167591e-02	1.60297208e-02
3.39737516e-02	-1.15914817e-02	1.77584693e-02
-1.31622833e-03	-2.68619475e-02	3.63714314e-03
1.32596448e-02	-3.16728323e-02	1.80953318e-02
2.94546324e-02	2.17933129e-03	8.90248608e-03
2.71262594e-02	-2.78258550e-02	9.06686886e-03
2.88593523e-02	-5.09360029e-03	8.04622784e-03
2.52888566e-02	-1.53915047e-02	1.47923831e-02
1.05110069e-02	-3.59863615e-02	8.76243389e-03
2.72033317e-02	-9.32703852e-03	1.46572649e-02
4.08624460e-02	2.60387401e-03	1.02285800e-02
1.98357193e-02	8.18121162e-03	7.67229428e-03
3.20310830e-02	-4.38092518e-03	1.38497592e-02
3.21273890e-02	3.66907618e-03	5.12217300e-03
8.91395659e-03	-1.22056524e-02	1.39610456e-02
3.16186723e-02	-1.46931140e-02	1.58546299e-02
6.28021587e-03	-3.38656134e-02	1.77172108e-03
3.58953151e-02	8.48770588e-03	1.72880488e-02
2.19385033e-02	-1.87467486e-02	1.37698441e-02
3.29016237e-02	1.13469484e-02	1.17787026e-02
2.28459634e-02	-2.21561371e-03	1.58064027e-02
2.58838708e-02	1.10549862e-02	1.58792365e-02
2.07290431e-02	-7.87685802e-03	1.38914816e-02
3.89485645e-02	7.09056444e-03	1.73262944e-02
5.20236452e-03	-2.66068236e-02	2.15157419e-03
1.67475634e-02	-7.62467216e-03	1.43723928e-02
2.49127205e-02	1.17262480e-02	1.29708408e-02
1.29336893e-02	-2.23922747e-02	1.88595287e-03
7.76034123e-03	-3.01643318e-02	5.54125328e-03
-8.13340436e-03	-2.79360057e-02	1.74668800e-02
3.21119366e-04	-3.43428186e-02	5.90684918e-03
2.21319108e-02	8.60798203e-03	1.86494954e-02
1.75019151e-02	-2.74796241e-02	1.42482261e-02
1.38121228e-02	-3.08453175e-02	1.45898685e-02
1.83196342e-02	-3.11347504e-02	1.16918186e-02
2.66055642e-02	-1.56253595e-02	1.23570845e-02
1.66750293e-02	-1.55518460e-02	1.78384758e-02
-6.17950371e-03	-3.10602458e-02	1.20023928e-02
3.04696915e-02	-1.34005266e-02	3.94831528e-03
2.90447126e-02	1.19391754e-02	7.39525870e-03
-1.18545307e-02	-4.09560896e-02	4.90736067e-03
3.02139759e-02	-7.44041579e-03	1.64293760e-02
8.21401579e-03	-3.24773753e-02	6.66590832e-03
1.87530738e-02	-3.00586610e-02	2.48766599e-03
6.18568520e-03	-1.72676945e-02	1.11638691e-02
2.57106329e-02	-2.68675854e-02	6.00566176e-03
4.09009675e-02	8.67150369e-03	1.72552715e-02
3.63791388e-02	2.98001880e-03	1.41577140e-02
3.23536263e-02	-2.13795691e-02	3.70805209e-03
5.83216110e-03	-1.43635797e-02	1.73492538e-02
1.64981610e-02	-3.11557746e-02	5.93041346e-03
3.89807095e-02	-5.34788348e-03	4.15331400e-03
1.48779511e-02	-3.80391998e-02	1.88067779e-02
-1.90909516e-03	-2.96468351e-02	1.47399072e-02
1.96915890e-02	6.78901130e-03	9.73497203e-03
2.02947571e-02	-3.39211120e-03	1.00668308e-02
1.87576904e-02	-2.23103559e-02	7.36802547e-03
2.35934482e-02	-1.71432202e-02	1.78649466e-02
2.12929847e-02	-2.89833607e-02	3.82614512e-03
3.58353034e-02	8.39797288e-03	1.89653781e-03
2.08138399e-02	3.14972922e-03	1.77553607e-02
-1.59778273e-02	-2.96104798e-02	7.72829875e-03
2.72136695e-02	-1.75999148e-02	6.15058749e-03
1.17289060e-02	-2.68392629e-02	5.98117287e-03
3.40019889e-02	1.56934362e-02	1.36299933e-02
3.48211125e-02	1.21642235e-02	4.10614519e-03
3.23825968e-02	-2.34084250e-02	9.63379858e-03
3.46245608e-02	1.66547866e-02	4.17578675e-03
3.05492401e-02	-7.95160096e-03	1.08834118e-02
2.45645945e-02	-3.04960290e-02	1.75424367e-02
-3.68732285e-03	-2.42959493e-02	8.62278988e-03
3.87517994e-03	-3.66615579e-02	1.41231752e-02
2.93595672e-02	-1.60037797e-02	1.02185748e-02
3.13066496e-02	-3.51830005e-03	1.05876496e-02
8.70512904e-03	-3.34198855e-02	1.19121894e-02
1.53300837e-02	-1.61599359e-02	1.91291343e-02
1.88544169e-04	-2.06755058e-02	1.37947436e-02
2.46192714e-02	-2.46736876e-02	1.50916314e-02
1.38734348e-02	-3.45801592e-02	1.57159292e-02
3.87838809e-02	1.40432603e-02	1.27990343e-02
2.42906010e-02	-1.41217933e-02	8.33602206e-03
1.53453699e-02	-3.03511791e-02	1.06077931e-02
6.78776210e-03	-3.01165029e-02	1.96464985e-03
3.09506924e-02	7.79346712e-03	9.40255477e-03
-1.82437598e-03	-3.73710626e-02	4.16630580e-03
2.69636464e-02	1.20371254e-02	1.82162272e-02
1.30154473e-02	3.53458135e-03	1.71559599e-02
1.36291327e-02	-2.07807572e-02	7.06781782e-03
1.75775022e-02	-3.42167077e-02	1.82333224e-02
8.85539659e-03	-3.57846764e-02	1.68246268e-03
3.51797819e-02	1.36611502e-02	1.51558640e-02
-7.15524779e-03	-3.34908383e-02	3.08363009e-03
1.57933632e-02	-6.73878237e-03	4.47930439e-03
3.80177042e-02	-1.14787988e-02	2.24193859e-03
2.82915484e-02	1.60734832e-02	2.34354497e-03
2.65500106e-02	-2.01037293e-02	1.13816486e-02
3.80575844e-02	-4.02395532e-03	1.66765741e-02
1.46790918e-02	-3.28153316e-02	1.12611314e-03
3.19742227e-02	-2.33154891e-02	1.80378634e-02
3.75995503e-02	7.60368423e-03	1.42807786e-02
3.59929531e-02	-8.00799758e-03	4.98482265e-03
3.47206356e-02	-5.57554689e-03	1.28460467e-02
-7.98365818e-03	-3.04280458e-02	1.40894409e-02
1.26031702e-02	1.45357592e-03	2.10208674e-03
-4.77226921e-03	-2.91095710e-02	2.04749496e-03
2.38105850e-02	-2.91415036e-02	9.77133931e-03
2.53579350e-02	9.98618103e-03	1.81876206e-02
3.59030046e-02	-1.12679386e-02	7.71105200e-03
2.66927069e-02	-4.47904610e-03	6.44120403e-03
1.08435969e-02	-4.07369300e-02	1.38290521e-02
2.68917021e-02	-1.58427541e-04	7.08778785e-03
3.87876233e-02	-5.97585626e-03	3.77882441e-03
2.30181822e-02	-3.04484507e-02	1.24346006e-02
2.34905475e-02	-9.44027877e-03	1.83583862e-02
9.67365334e-03	-3.67295469e-02	1.86247503e-02
3.80596928e-02	5.95444134e-03	1.02370893e-02
2.06526789e-02	-4.53912826e-03	1.44644989e-02
3.21986907e-02	2.01709275e-02	4.02849175e-03
3.51588306e-02	1.86654165e-03	6.88887421e-03
3.73924146e-02	4.89965756e-04	2.03898973e-03
-8.75342918e-03	-2.83403401e-02	3.14153725e-03
3.07214965e-02	-5.20337770e-04	1.94359982e-03
2.34962927e-02	-7.05254945e-03	1.04177529e-02
3.26045963e-03	-4.09613549e-02	1.86686676e-02
1.81147851e-02	3.53073888e-03	1.78281813e-02
2.32840448e-02	-1.91511103e-02	8.54951773e-03
3.23417079e-02	-5.98914055e-03	9.89945578e-03
2.02338844e-02	1.74110542e-03	1.40868747e-02
8.14125164e-03	-2.20562437e-02	2.30120316e-03
-1.16078462e-02	-3.31256546e-02	1.41380302e-02
3.52302680e-02	-8.82038768e-03	2.09955592e-03
1.14495032e-02	-1.34883166e-02	3.87474511e-03
1.77101703e-02	-3.71512139e-02	1.82638635e-02
2.78163758e-02	-1.02219738e-04	4.23904734e-03
3.55863108e-02	-9.94919486e-03	9.10324375e-03
3.86846246e-02	-2.53010234e-03	2.76691803e-03
1.72181194e-02	-2.81251290e-02	7.19283753e-03
4.99509885e-04	-1.25111403e-02	1.87475907e-02
1.97175187e-02	-1.83821666e-02	5.64543033e-03
2.97534788e-02	1.32404328e-03	1.36009273e-02
9.42847446e-03	-2.66803978e-02	8.37508734e-03
3.89186785e-02	-3.58279820e-03	9.91567457e-03
-1.08521593e-03	-3.27045634e-02	1.73939343e-02
-6.69055424e-03	-3.31434518e-02	6.94927266e-03
3.43733702e-02	-1.52417655e-02	1.69796366e-02
1.90667072e-03	-4.04813717e-02	3.05233139e-03
1.72285018e-02	7.32601258e-03	1.85223493e-02
2.89729936e-02	5.33928026e-03	1.72473437e-02
3.98075474e-02	2.46565033e-03	1.77178352e-02
3.40645080e-02	-2.13158942e-02	9.08654366e-03
2.78869332e-02	-1.11119881e-02	1.53887289e-03
2.35738629e-02	-2.82828021e-02	9.40096998e-03
3.03868566e-02	-2.11988524e-02	1.53634352e-02
2.84837036e-02	-2.38535371e-02	5.19297109e-03
5.69612861e-04	-2.53670390e-02	6.50262210e-03
2.87749018e-02	-1.23137803e-02	6.95779198e-03
3.80106255e-02	1.56055796e-02	1.77591164e-02
1.05691470e-02	-1.23637400e-03	1.16863437e-02
2.84544872e-02	-1.13781282e-02	1.74399512e-02
3.41316512e-02	-1.02420212e-02	1.04323716e-02
1.60509873e-02	-8.42787393e-03	1.51049541e-03
3.37720057e-02	-1.18234506e-02	1.12419198e-02
3.41606861e-02	1.33100158e-03	1.79506973e-02
3.37369491e-02	-7.75120938e-03	2.41971655e-03
8.74664906e-03	-2.96029358e-02	9.81225360e-03
1.76138453e-02	-1.63931135e-02	1.81563209e-02
-3.83271748e-03	-2.01364400e-02	1.03378772e-02
3.59969251e-02	1.98012063e-02	1.72908987e-02
1.92205854e-02	5.96503895e-03	2.66367471e-03
2.61230280e-03	-2.84171042e-02	1.15133635e-02
2.70773086e-02	-1.99794640e-02	1.39903315e-02
2.31368500e-02	-1.63352437e-02	9.52513953e-03
1.21592345e-02	-1.50469792e-02	8.68496794e-03
-5.86036882e-04	-3.73901773e-02	1.41996768e-02
2.72095736e-02	1.12344877e-02	1.47081457e-02
1.36638514e-02	-2.09794224e-03	1.30093251e-02
-3.25348665e-05	-2.15995072e-02	1.85186400e-02
2.90682177e-02	-2.00980417e-02	1.34621586e-02
4.28824415e-03	-3.74540235e-02	1.79844992e-02
9.28164938e-03	-9.20016895e-03	4.79642284e-03
-3.15845507e-03	-2.11845580e-02	1.79249323e-02
2.68732925e-02	1.06903805e-02	3.94118240e-03
2.79161806e-02	-1.12105367e-03	1.48101425e-02
1.12531521e-02	-1.33805450e-02	1.50685165e-02
1.07991519e-02	-3.62208497e-02	1.49142199e-02
1.05026069e-02	-2.74832691e-02	2.19235886e-03
6.10495942e-03	-4.18665968e-02	1.57934964e-02
2.37682226e-02	-2.32621171e-02	1.69601683e-02
2.01220632e-02	-1.27317156e-02	1.82767889e-02
2.73231841e-02	-2.48720521e-03	2.65761650e-03
[...]
POINT_DATA 469
SCALARS Radius double 1
LOOKUP_TABLE default
2.00000000e-03
2.00000000e-03
2.00000000e-03
2.00000000e-03
2.00000000e-03
2.00000000e-03
2.00000000e-03
2.00000000e-03
2.00000000e-03
2.00000000e-03
2.00000000e-03
2.00000000e-03
2.00000000e-03
2.00000000e-03
2.00000000e-03
2.00000000e-03
2.00000000e-03
2.00000000e-03
2.00000000e-03
2.00000000e-03
2.00000000e-03
2.00000000e-03
2.00000000e-03
2.00000000e-03
2.00000000e-03
2.00000000e-03
2.00000000e-03
2.00000000e-03
2.00000000e-03
2.00000000e-03
2.00000000e-03
2.00000000e-03
2.00000000e-03
2.00000000e-03
2.00000000e-03
2.00000000e-03
2.00000000e-03
2.00000000e-03
2.00000000e-03
2.00000000e-03
2.00000000e-03
2.00000000e-03
2.00000000e-03
2.00000000e-03
2.00000000e-03
2.00000000e-03
2.00000000e-03
2.00000000e-03
2.00000000e-03
2.00000000e-03
2.00000000e-03
2.00000000e-03
2.00000000e-03
2.00000000e-03
2.00000000e-03
2.00000000e-03
2.00000000e-03
2.00000000e-03
2.00000000e-03
2.00000000e-03
2.00000000e-03
2.00000000e-03
2.00000000e-03
2.00000000e-03
2.00000000e-03
2.00000000e-03
2.00000000e-03
2.00000000e-03
2.00000000e-03
2.00000000e-03
2.00000000e-03
2.00000000e-03
2.00000000e-03
2.00000000e-03
2.00000000e-03
2.00000000e-03
2.00000000e-03
2.00000000e-03
2.00000000e-03
2.00000000e-03
2.00000000e-03
2.00000000e-03
2.00000000e-03
2.00000000e-03
2.00000000e-03
2.00000000e-03
2.00000000e-03
2.00000000e-03
2.00000000e-03
2.00000000e-03
2.00000000e-03
2.00000000e-03
2.00000000e-03
2.00000000e-03
2.00000000e-03
2.00000000e-03
2.00000000e-03
2.00000000e-03
2.00000000e-03
2.00000000e-03
2.00000000e-03
2.00000000e-03
2.00000000e-03
2.00000000e-03
2.00000000e-03
2.00000000e-03
2.00000000e-03
2.00000000e-03
2.00000000e-03
2.00000000e-03
2.00000000e-03
2.00000000e-03
2.00000000e-03
2.00000000e-03
2.00000000e-03
2.00000000e-03
2.00000000e-03
2.00000000e-03
2.00000000e-03
2.00000000e-03
2.00000000e-03
2.00000000e-03
2.00000000e-03
2.00000000e-03
2.00000000e-03
2.00000000e-03
2.00000000e-03
2.00000000e-03
2.00000000e-03
2.00000000e-03
2.00000000e-03
2.00000000e-03
2.00000000e-03
2.00000000e-03
2.00000000e-03
2.00000000e-03
2.00000000e-03
2.00000000e-03
2.00000000e-03
2.00000000e-03
2.00000000e-03
2.00000000e-03
2.00000000e-03
2.00000000e-03
2.00000000e-03
2.00000000e-03
2.00000000e-03
2.00000000e-03
2.00000000e-03
2.00000000e-03
2.00000000e-03
2.00000000e-03
2.00000000e-03
2.00000000e-03
2.00000000e-03
2.00000000e-03
2.00000000e-03
2.00000000e-03
2.00000000e-03
2.00000000e-03
2.00000000e-03
2.00000000e-03
2.00000000e-03
2.00000000e-03
2.00000000e-03
2.00000000e-03
2.00000000e-03
2.00000000e-03
2.00000000e-03
2.00000000e-03
2.00000000e-03
2.00000000e-03
2.00000000e-03
2.00000000e-03
2.00000000e-03
2.00000000e-03
2.00000000e-03
2.00000000e-03
2.00000000e-03
2.00000000e-03
2.00000000e-03
2.00000000e-03
2.00000000e-03
2.00000000e-03
2.00000000e-03
2.00000000e-03
2.00000000e-03
2.00000000e-03
2.00000000e-03
2.00000000e-03
2.00000000e-03
2.00000000e-03
2.00000000e-03
2.00000000e-03
2.00000000e-03
2.00000000e-03
2.00000000e-03
2.00000000e-03
2.00000000e-03
2.00000000e-03
2.00000000e-03
2.00000000e-03
2.00000000e-03
2.00000000e-03
2.00000000e-03
2.00000000e-03
2.00000000e-03
2.00000000e-03
2.00000000e-03
2.00000000e-03
2.00000000e-03
2.00000000e-03
2.00000000e-03
2.00000000e-03
2.00000000e-03
2.00000000e-03
2.00000000e-03
2.00000000e-03
2.00000000e-03
2.00000000e-03
2.00000000e-03
2.00000000e-03
2.00000000e-03
2.00000000e-03
2.00000000e-03
2.00000000e-03
2.00000000e-03
2.00000000e-03
2.00000000e-03
2.00000000e-03
2.00000000e-03
2.00000000e-03
2.00000000e-03
2.00000000e-03
2.00000000e-03
2.00000000e-03
2.00000000e-03
2.00000000e-03
2.00000000e-03
2.00000000e-03
2.00000000e-03
2.00000000e-03
2.00000000e-03
2.00000000e-03
2.00000000e-03
2.00000000e-03
2.00000000e-03
2.00000000e-03
2.00000000e-03
2.00000000e-03
2.00000000e-03
2.00000000e-03
2.00000000e-03
2.00000000e-03
2.00000000e-03
2.00000000e-03
2.00000000e-03
2.00000000e-03
2.00000000e-03
2.00000000e-03
2.00000000e-03
2.00000000e-03
2.00000000e-03
2.00000000e-03
2.00000000e-03
2.00000000e-03
2.00000000e-03
2.00000000e-03
2.00000000e-03
2.00000000e-03
2.00000000e-03
2.00000000e-03
2.00000000e-03
2.00000000e-03
2.00000000e-03
2.00000000e-03
2.00000000e-03
2.00000000e-03
2.00000000e-03
2.00000000e-03
2.00000000e-03
2.00000000e-03
2.00000000e-03
2.00000000e-03
2.00000000e-03
2.00000000e-03
2.00000000e-03
2.00000000e-03
2.00000000e-03
2.00000000e-03
2.00000000e-03
2.00000000e-03
2.00000000e-03
2.00000000e-03
2.00000000e-03
2.00000000e-03
2.00000000e-03
2.00000000e-03
2.00000000e-03
2.00000000e-03
2.00000000e-03
2.00000000e-03
2.00000000e-03
2.00000000e-03
2.00000000e-03
2.00000000e-03
2.00000000e-03
2.00000000e-03
2.00000000e-03
2.00000000e-03
2.00000000e-03
2.00000000e-03
2.00000000e-03
2.00000000e-03
2.00000000e-03
2.00000000e-03
2.00000000e-03
2.00000000e-03
2.00000000e-03
2.00000000e-03
2.00000000e-03
2.00000000e-03
2.00000000e-03
2.00000000e-03
2.00000000e-03
2.00000000e-03
2.00000000e-03
2.00000000e-03
2.00000000e-03
2.00000000e-03
2.00000000e-03
2.00000000e-03
2.00000000e-03
2.00000000e-03
2.00000000e-03
2.00000000e-03
2.00000000e-03
2.00000000e-03
2.00000000e-03
2.00000000e-03
2.00000000e-03
2.00000000e-03
2.00000000e-03
2.00000000e-03
2.00000000e-03
2.00000000e-03
2.00000000e-03
2.00000000e-03
2.00000000e-03
2.00000000e-03
2.00000000e-03
2.00000000e-03
2.00000000e-03
2.00000000e-03
2.00000000e-03
2.00000000e-03
2.00000000e-03
2.00000000e-03
2.00000000e-03
2.00000000e-03
2.00000000e-03
2.00000000e-03
2.00000000e-03
2.00000000e-03
2.00000000e-03
2.00000000e-03
2.00000000e-03
2.00000000e-03
2.00000000e-03
2.00000000e-03
2.00000000e-03
2.00000000e-03
2.00000000e-03
2.00000000e-03
2.00000000e-03
2.00000000e-03
2.00000000e-03
2.00000000e-03
2.00000000e-03
2.00000000e-03
2.00000000e-03
2.00000000e-03
2.00000000e-03
2.00000000e-03
2.00000000e-03
2.00000000e-03
2.00000000e-03
2.00000000e-03
2.00000000e-03
2.00000000e-03
2.00000000e-03
2.00000000e-03
2.00000000e-03
2.00000000e-03
2.00000000e-03
2.00000000e-03
2.00000000e-03
2.00000000e-03
2.00000000e-03
2.00000000e-03
2.00000000e-03
2.00000000e-03
2.00000000e-03
2.00000000e-03
2.00000000e-03
2.00000000e-03
2.00000000e-03
2.00000000e-03
2.00000000e-03
2.00000000e-03
2.00000000e-03
2.00000000e-03
2.00000000e-03
2.00000000e-03
2.00000000e-03
2.00000000e-03
2.00000000e-03
2.00000000e-03
2.00000000e-03
2.00000000e-03
2.00000000e-03
2.00000000e-03
2.00000000e-03
2.00000000e-03
2.00000000e-03
2.00000000e-03
2.00000000e-03
2.00000000e-03
2.00000000e-03
2.00000000e-03
2.00000000e-03
2.00000000e-03
2.00000000e-03
2.00000000e-03
2.00000000e-03
2.00000000e-03
2.00000000e-03
2.00000000e-03
2.00000000e-03
2.00000000e-03
2.00000000e-03
2.00000000e-03
2.00000000e-03
2.00000000e-03
2.00000000e-03
2.00000000e-03
2.00000000e-03
2.00000000e-03
2.00000000e-03
2.00000000e-03
2.00000000e-03
2.00000000e-03
2.00000000e-03
2.00000000e-03
2.00000000e-03
2.00000000e-03
2.00000000e-03
2.00000000e-03
2.00000000e-03
2.00000000e-03
2.00000000e-03
2.00000000e-03
2.00000000e-03
2.00000000e-03
2.00000000e-03
2.00000000e-03
2.00000000e-03
2.00000000e-03
2.00000000e-03
