# vtk DataFile Version 2.0
Particle data
ASCII
DATASET POLYDATA
POINTS 469 double
4.40059600e-03	-3.53746686e-02	8.60107980e-03
1.47277006e-02	-8.31248618e-03	8.23847650e-03
2.51951982e-02	1.18347680e-02	2.03763720e-03
3.89159414e-02	-9.82540304e-03	1.79133462e-02
2.40026301e-02	9.29823906e-03	5.04405018e-03
7.39183419e-03	-3.91313765e-02	2.39225611e-03
3.83158067e-03	-3.29901020e-02	1.15847863e-02
2.23823362e-02	-1.87091796e-02	1.76066132e-02
3.95144645e-03	-1.43144769e-02	1.73150519e-02
3.65797499e-02	3.81333106e-03	1.08609483e-02
1.17038687e-02	-3.84944354e-02	1.76191138e-02
5.57864202e-03	-2.37358219e-02	1.75426582e-02
2.28549722e-03	-1.92558681e-02	1.49796226e-02
3.24863275e-02	2.09434954e-02	1.95205064e-03
9.46109804e-03	-3.90765302e-02	1.44310440e-02
3.28061844e-02	-6.65340235e-03	1.21394492e-02
3.42317836e-02	-1.32964879e-02	1.43429526e-02
7.69983276e-03	-1.39846209e-02	3.20341348e-03
2.46270133e-02	-2.01769003e-02	1.41385466e-02
1.51038304e-02	-3.50181278e-02	1.10277024e-02
1.85617857e-02	-3.13794651e-02	2.01572475e-03
7.67136238e-03	-6.37501625e-03	1.80859507e-02
3.60521259e-02	-7.27592364e-03	1.12820920e-02
1.72255620e-02	-1.72802012e-02	2.19375954e-03
2.84738885e-02	5.70816159e-03	2.03949888e-03
3.75402924e-02	-6.25458126e-05	1.48219628e-02
2.70247085e-02	-2.96569592e-02	1.45367513e-02
-1.40839535e-03	-2.91841226e-02	1.40822948e-02
3.56656780e-02	-1.75857813e-02	1.68906802e-02
1.69696158e-02	-1.29075828e-02	1.44465163e-02
7.44262210e-03	-1.35821497e-02	1.42701991e-02
-6.99008068e-03	-4.01132183e-02	2.19931276e-03
4.82734361e-03	-2.21474904e-02	6.65369541e-03
2.22682033e-02	-1.84631527e-03	1.79177853e-02
2.85113988e-02	-1.86044266e-03	9.14565336e-03
3.10307353e-02	1.91772132e-02	1.17204941e-02
7.23484686e-03	-3.66465297e-02	5.62024588e-03
2.80650187e-02	-2.30528648e-02	9.38599755e-03
8.12863337e-03	-2.27049933e-02	1.11781998e-02
2.68092008e-02	-1.56442528e-03	2.60743299e-03
2.56454770e-02	-2.58198067e-02	8.13371097e-03
-3.31874144e-03	-2.95691960e-02	1.50653810e-02
3.15272307e-02	8.03394985e-03	1.99516371e-03
8.96377116e-03	-2.48193451e-02	1.51252416e-02
3.59483170e-02	-3.50517879e-03	1.33840493e-02
1.92995600e-02	-3.06336768e-02	1.08451067e-02
1.49953562e-02	-2.53954704e-02	1.36763428e-02
1.34662897e-02	-2.65652719e-02	5.46174571e-03
1.83258091e-02	-1.59280673e-02	1.12176268e-02
5.07425214e-03	-2.95606265e-02	1.79101362e-02
1.34847528e-02	-1.44565464e-02	3.06199009e-03
1.58669791e-02	-1.08658412e-02	2.87775413e-03
3.59097992e-02	-7.38606035e-03	1.63971034e-02
2.32876839e-02	-1.76336484e-02	8.19923270e-03
3.95495884e-02	-3.05413780e-03	4.81985094e-03
3.43435736e-02	-2.02144931e-02	1.42147382e-02
3.63782942e-02	6.97869167e-04	9.21616048e-03
1.69792974e-02	-2.85213746e-02	1.49310985e-02
3.96617905e-02	4.85323351e-03	1.41809170e-02
3.60471807e-02	5.55308751e-03	1.70794792e-02
3.33430561e-02	1.91432263e-02	1.62709012e-02
2.43828370e-02	-9.60219526e-03	1.15641595e-02
1.09276980e-02	-2.52918601e-02	1.82509686e-02
3.33307008e-02	-1.51465154e-02	1.01160959e-02
2.59737271e-02	1.75575242e-02	3.66168509e-03
1.82890864e-02	-3.56423873e-02	6.74483383e-03
3.37815146e-02	7.67222647e-03	5.75270522e-03
1.44291723e-02	-3.32292328e-03	1.73236690e-02
3.99364999e-02	1.74192144e-03	1.15528899e-02
3.16821028e-02	1.31907210e-02	1.05654066e-02
2.84534804e-02	-2.78033188e-02	6.25944520e-03
8.82654627e-03	-4.46044429e-03	2.26836978e-03
8.39190168e-03	-3.34802744e-02	1.80801080e-02
2.33542400e-02	-2.88883919e-02	8.58259016e-03
-1.40982088e-03	-3.55769928e-02	6.40886086e-03
2.54139608e-02	-3.04695447e-02	1.81863731e-02
2.60077409e-02	-2.09524242e-02	5.66045170e-03
1.14761274e-02	-1.85983426e-02	5.25876994e-03
1.91392391e-02	1.47725365e-03	4.30478447e-03
2.00248747e-02	-1.56207170e-02	1.80008518e-02
1.74061155e-02	-2.77319211e-02	5.42729149e-03
2.55337694e-02	-1.83661091e-03	6.72482910e-03
3.55925011e-02	7.15074505e-03	1.94349917e-03
3.36352368e-02	1.46431188e-02	1.73743457e-02
2.77990916e-02	2.03435563e-03	2.00092955e-03
1.84742177e-02	-3.54227153e-02	1.93186531e-03
-3.45434000e-03	-3.57015126e-02	1.13119897e-02
3.46186908e-02	-1.08942427e-02	1.27425624e-02
2.88309752e-02	7.22878550e-03	5.58424997e-03
2.84377812e-02	-1.30319288e-02	6.59280708e-03
2.10989292e-02	-2.98541492e-02	5.41623605e-03
9.33544116e-03	-1.79209763e-02	3.62910082e-03
1.67333342e-02	-3.49802922e-03	6.02992524e-03
2.79365215e-02	-2.84452769e-02	1.02843313e-02
2.80585864e-02	1.23816850e-02	1.71258643e-02
-6.02686683e-03	-2.58317745e-02	5.39312986e-03
3.45137009e-02	-1.13526456e-02	8.93166990e-03
3.22673942e-02	-3.11932196e-04	1.81963573e-02
1.42548873e-02	-1.84836377e-02	1.80952689e-02
1.99996921e-02	-6.96795371e-03	1.27261146e-02
2.88328521e-02	-9.39359901e-03	2.04260821e-03
2.87579142e-02	-8.96116052e-03	1.14266932e-02
3.13401176e-02	-1.61064124e-02	1.31843765e-02
6.14506697e-03	-2.57576258e-03	1.81027098e-02
3.54379057e-02	-3.51902159e-03	9.06943186e-03
1.64290719e-02	-2.12991916e-02	1.96384185e-03
3.25318189e-02	-7.94705949e-03	2.21907655e-03
2.11211349e-02	-1.60944975e-02	2.05400617e-03
3.48792795e-02	1.12192447e-02	1.93278092e-03
2.57849855e-02	7.42648892e-03	7.92949333e-03
3.11336328e-02	-1.18377683e-02	4.18810228e-03
2.13539038e-02	-3.04862879e-02	1.80792712e-02
1.53803668e-02	-3.06927761e-02	1.20660685e-02
3.51638838e-02	-1.09192985e-02	2.12869173e-03
3.18209609e-02	1.11331633e-02	1.80862311e-02
3.58909612e-02	2.81341575e-03	2.09789772e-03
3.20146894e-02	-2.39322151e-02	9.94061726e-03
3.11816702e-02	-4.67705145e-03	9.37704201e-03
1.56804798e-02	-1.72728679e-03	1.27764832e-02
-2.88559168e-03	-3.11360951e-02	6.31566562e-03
8.45632115e-03	-3.15551870e-02	1.95191331e-03
1.24249068e-02	-2.18425028e-02	1.79630019e-02
1.70336120e-02	-3.64017645e-02	1.65860025e-02
3.09780638e-02	1.53046998e-02	1.46688179e-02
-4.81274902e-03	-1.75062215e-02	1.80691217e-02
1.53488536e-02	-3.36579101e-02	4.52709152e-03
4.35373731e-03	-3.94931767e-02	4.91619190e-03
1.34875037e-02	-5.01956322e-03	9.10552311e-03
3.15453746e-02	-1.86873508e-02	8.57390748e-03
2.87767385e-02	-1.80409144e-02	1.98871370e-03
2.82462342e-02	-2.41439740e-02	5.59984781e-03
-3.51033195e-03	-1.95101133e-02	9.93727972e-03
1.89442615e-02	-2.70237571e-02	1.79950678e-02
1.50930928e-02	3.05899996e-03	1.46300306e-02
2.02004326e-02	-1.11900603e-02	1.17891264e-02
3.75784197e-02	1.27910993e-02	5.75750662e-03
1.32848614e-02	-2.12547331e-04	6.24773468e-03
4.17723936e-03	-3.70017338e-02	2.01854772e-03
3.15487984e-02	-3.98402669e-03	1.41648985e-02
2.81995378e-02	-2.21606014e-02	1.74608240e-02
3.51623274e-02	9.37840603e-03	1.58952468e-02
1.24819082e-02	-3.25375219e-02	1.95185687e-03
1.42358738e-02	-3.31372360e-02	1.47426382e-02
3.24864723e-02	-2.31333356e-02	6.17958382e-03
7.19027376e-03	-3.23983481e-02	7.50164762e-03
1.49103383e-02	-3.71767191e-02	2.66724586e-03
3.91744528e-02	-4.56818340e-03	1.08215073e-02
1.11005720e-02	-3.77853388e-02	2.03833912e-03
2.39145341e-02	-1.27309236e-02	8.90076038e-03
2.64435680e-02	1.44460746e-04	1.80989547e-02
1.14696318e-02	-3.06351502e-02	1.09699525e-02
2.88737349e-02	-4.88775078e-03	1.80519040e-02
1.26826273e-03	-3.95078445e-02	1.13341148e-02
2.35411602e-02	-3.23708586e-02	1.51422756e-02
1.16428290e-02	-2.01598767e-02	1.35550652e-02
1.87919803e-02	-1.95553866e-02	1.03285596e-02
2.12391474e-04	-3.97303509e-02	6.00838667e-03
2.49434229e-02	6.79511998e-03	1.62702522e-03
1.66677617e-02	8.47595452e-03	3.10690295e-03
1.14156365e-02	-2.79534769e-02	2.08789113e-03
3.10282438e-03	-1.63247329e-02	8.22807914e-03
1.20350970e-03	-3.96520726e-02	2.12025309e-03
3.91583003e-02	9.13820532e-03	1.39554875e-02
2.95885869e-02	-1.58918042e-02	1.81474542e-02
3.29219537e-02	4.99007065e-04	1.87082027e-03
1.73785013e-02	-6.66280895e-03	1.05387894e-02
1.29990234e-02	-2.19532749e-02	6.15291760e-03
1.04937917e-02	-3.48702987e-02	4.50434240e-03
3.75412055e-02	-1.39691030e-02	1.80188447e-02
3.07535692e-02	-1.00960376e-02	7.54667825e-03
5.18728319e-03	-3.94309503e-02	8.90398399e-03
3.95588725e-02	7.04673587e-03	2.71461506e-03
1.41301241e-02	-2.49303704e-02	9.76627076e-03
8.04763185e-04	-3.25411507e-02	1.44044299e-02
7.04471260e-03	-2.42759553e-02	5.93881955e-03
-7.16930700e-04	-3.69320964e-02	1.34438544e-02
-6.75396692e-03	-3.26350268e-02	3.06535593e-03
1.10859829e-02	7.32891213e-04	1.78580295e-02
-3.25163010e-03	-3.85671954e-02	1.80099933e-02
2.44493657e-02	-1.46866656e-02	5.52251025e-03
3.78936741e-02	-1.28554926e-02	1.44383351e-02
2.09975636e-02	-1.33785972e-02	4.79887725e-03
8.48624266e-03	-2.14747166e-02	1.79137927e-02
3.90750992e-02	-9.59904751e-03	7.25838098e-03
2.10764118e-02	-4.62405889e-03	1.56549854e-02
-2.72575547e-03	-3.97940535e-02	9.38532190e-03
1.07282293e-02	-3.55319013e-02	1.27740817e-02
-1.80468310e-03	-2.64023269e-02	1.12412896e-02
1.49993178e-02	-2.63652098e-02	1.75644650e-02
-1.57708885e-03	-3.74852463e-02	1.99941345e-03
3.68577669e-02	-2.04301483e-03	1.78313703e-02
3.47897165e-02	3.34344785e-03	1.44173756e-02
3.93228821e-02	-3.96391500e-03	1.48970756e-02
3.65886231e-02	-1.61566739e-02	7.79626408e-03
1.98026598e-02	-1.66357053e-02	5.51753560e-03
2.68369551e-02	-1.30708145e-02	1.80042983e-02
3.25881960e-02	2.87457805e-03	1.06334485e-02
1.56281054e-02	-1.78400194e-02	7.71217878e-03
1.03158852e-02	-2.36426333e-02	9.48789973e-03
3.95305480e-02	4.15472079e-03	1.80786702e-02
2.49954804e-02	-3.08897485e-02	1.13860439e-02
1.74669319e-02	-3.14434935e-02	7.23355341e-03
2.87592948e-02	-1.57377839e-02	9.84817432e-03
5.58721421e-04	-1.28066489e-02	1.77031815e-02
3.88891711e-02	-7.74859963e-03	1.45473998e-02
1.47681165e-02	-2.90684175e-02	8.43965172e-03
1.68866254e-02	-1.70875002e-02	1.48601101e-02
2.87442909e-02	-2.75411874e-02	1.76671290e-02
1.69562455e-02	5.65341276e-03	7.13265695e-03
2.34731096e-02	-2.38707370e-02	1.47163953e-02
3.51523328e-02	1.19989142e-02	1.28622076e-02
3.59116966e-02	-4.37858649e-03	2.07496267e-03
3.95937203e-02	7.94765262e-03	6.41360065e-03
2.93096023e-02	-7.67507830e-03	1.50253500e-02
1.47625357e-02	5.90092010e-03	1.15627812e-02
3.29938700e-02	1.19825636e-02	5.94944860e-03
[...]
POINT_DATA 469
SCALARS Radius double 1
LOOKUP_TABLE default
2.00000000e-03
2.00000000e-03
2.00000000e-03
2.00000000e-03
2.00000000e-03
2.00000000e-03
2.00000000e-03
2.00000000e-03
2.00000000e-03
2.00000000e-03
2.00000000e-03
2.00000000e-03
2.00000000e-03
2.00000000e-03
2.00000000e-03
2.00000000e-03
2.00000000e-03
2.00000000e-03
2.00000000e-03
2.00000000e-03
2.00000000e-03
2.00000000e-03
2.00000000e-03
2.00000000e-03
2.00000000e-03
2.00000000e-03
2.00000000e-03
2.00000000e-03
2.00000000e-03
2.00000000e-03
2.00000000e-03
2.00000000e-03
2.00000000e-03
2.00000000e-03
2.00000000e-03
2.00000000e-03
2.00000000e-03
2.00000000e-03
2.00000000e-03
2.00000000e-03
2.00000000e-03
2.00000000e-03
2.00000000e-03
2.00000000e-03
2.00000000e-03
2.00000000e-03
2.00000000e-03
2.00000000e-03
2.00000000e-03
2.00000000e-03
2.00000000e-03
2.00000000e-03
2.00000000e-03
2.00000000e-03
2.00000000e-03
2.00000000e-03
2.00000000e-03
2.00000000e-03
2.00000000e-03
2.00000000e-03
2.00000000e-03
2.00000000e-03
2.00000000e-03
2.00000000e-03
2.00000000e-03
2.00000000e-03
2.00000000e-03
2.00000000e-03
2.00000000e-03
2.00000000e-03
2.00000000e-03
2.00000000e-03
2.00000000e-03
2.00000000e-03
2.00000000e-03
2.00000000e-03
2.00000000e-03
2.00000000e-03
2.00000000e-03
2.00000000e-03
2.00000000e-03
2.00000000e-03
2.00000000e-03
2.00000000e-03
2.00000000e-03
2.00000000e-03
2.00000000e-03
2.00000000e-03
2.00000000e-03
2.00000000e-03
2.00000000e-03
2.00000000e-03
2.00000000e-03
2.00000000e-03
2.00000000e-03
2.00000000e-03
2.00000000e-03
2.00000000e-03
2.00000000e-03
2.00000000e-03
2.00000000e-03
2.00000000e-03
2.00000000e-03
2.00000000e-03
2.00000000e-03
2.00000000e-03
2.00000000e-03
2.00000000e-03
2.00000000e-03
2.00000000e-03
2.00000000e-03
2.00000000e-03
2.00000000e-03
2.00000000e-03
2.00000000e-03
2.00000000e-03
2.00000000e-03
2.00000000e-03
2.00000000e-03
2.00000000e-03
2.00000000e-03
2.00000000e-03
2.00000000e-03
2.00000000e-03
2.00000000e-03
2.00000000e-03
2.00000000e-03
2.00000000e-03
2.00000000e-03
2.00000000e-03
2.00000000e-03
2.00000000e-03
2.00000000e-03
2.00000000e-03
2.00000000e-03
2.00000000e-03
2.00000000e-03
2.00000000e-03
2.00000000e-03
2.00000000e-03
2.00000000e-03
2.00000000e-03
2.00000000e-03
2.00000000e-03
2.00000000e-03
2.00000000e-03
2.00000000e-03
2.00000000e-03
2.00000000e-03
2.00000000e-03
2.00000000e-03
2.00000000e-03
2.00000000e-03
2.00000000e-03
2.00000000e-03
2.00000000e-03
2.00000000e-03
2.00000000e-03
2.00000000e-03
2.00000000e-03
2.00000000e-03
2.00000000e-03
2.00000000e-03
2.00000000e-03
2.00000000e-03
2.00000000e-03
2.00000000e-03
2.00000000e-03
2.00000000e-03
2.00000000e-03
2.00000000e-03
2.00000000e-03
2.00000000e-03
2.00000000e-03
2.00000000e-03
2.00000000e-03
2.00000000e-03
2.00000000e-03
2.00000000e-03
2.00000000e-03
2.00000000e-03
2.00000000e-03
2.00000000e-03
2.00000000e-03
2.00000000e-03
2.00000000e-03
2.00000000e-03
2.00000000e-03
2.00000000e-03
2.00000000e-03
2.00000000e-03
2.00000000e-03
2.00000000e-03
2.00000000e-03
2.00000000e-03
2.00000000e-03
2.00000000e-03
2.00000000e-03
2.00000000e-03
2.00000000e-03
2.00000000e-03
2.00000000e-03
2.00000000e-03
2.00000000e-03
2.00000000e-03
2.00000000e-03
2.00000000e-03
2.00000000e-03
2.00000000e-03
2.00000000e-03
2.00000000e-03
2.00000000e-03
2.00000000e-03
2.00000000e-03
2.00000000e-03
2.00000000e-03
2.00000000e-03
2.00000000e-03
2.00000000e-03
2.00000000e-03
2.00000000e-03
2.00000000e-03
2.00000000e-03
2.00000000e-03
2.00000000e-03
2.00000000e-03
2.00000000e-03
2.00000000e-03
2.00000000e-03
2.00000000e-03
2.00000000e-03
2.00000000e-03
2.00000000e-03
2.00000000e-03
2.00000000e-03
2.00000000e-03
2.00000000e-03
2.00000000e-03
2.00000000e-03
2.00000000e-03
2.00000000e-03
2.00000000e-03
2.00000000e-03
2.00000000e-03
2.00000000e-03
2.00000000e-03
2.00000000e-03
2.00000000e-03
2.00000000e-03
2.00000000e-03
2.00000000e-03
2.00000000e-03
2.00000000e-03
2.00000000e-03
2.00000000e-03
2.00000000e-03
2.00000000e-03
2.00000000e-03
2.00000000e-03
2.00000000e-03
2.00000000e-03
2.00000000e-03
2.00000000e-03
2.00000000e-03
2.00000000e-03
2.00000000e-03
2.00000000e-03
2.00000000e-03
2.00000000e-03
2.00000000e-03
2.00000000e-03
2.00000000e-03
2.00000000e-03
2.00000000e-03
2.00000000e-03
2.00000000e-03
2.00000000e-03
2.00000000e-03
2.00000000e-03
2.00000000e-03
2.00000000e-03
2.00000000e-03
2.00000000e-03
2.00000000e-03
2.00000000e-03
2.00000000e-03
2.00000000e-03
2.00000000e-03
2.00000000e-03
2.00000000e-03
2.00000000e-03
2.00000000e-03
2.00000000e-03
2.00000000e-03
2.00000000e-03
2.00000000e-03
2.00000000e-03
2.00000000e-03
2.00000000e-03
2.00000000e-03
2.00000000e-03
2.00000000e-03
2.00000000e-03
2.00000000e-03
2.00000000e-03
2.00000000e-03
2.00000000e-03
2.00000000e-03
2.00000000e-03
2.00000000e-03
2.00000000e-03
2.00000000e-03
2.00000000e-03
2.00000000e-03
2.00000000e-03
2.00000000e-03
2.00000000e-03
2.00000000e-03
2.00000000e-03
2.00000000e-03
2.00000000e-03
2.00000000e-03
2.00000000e-03
2.00000000e-03
2.00000000e-03
2.00000000e-03
2.00000000e-03
2.00000000e-03
2.00000000e-03
2.00000000e-03
2.00000000e-03
2.00000000e-03
2.00000000e-03
2.00000000e-03
2.00000000e-03
2.00000000e-03
2.00000000e-03
2.00000000e-03
2.00000000e-03
2.00000000e-03
2.00000000e-03
2.00000000e-03
2.00000000e-03
2.00000000e-03
2.00000000e-03
2.00000000e-03
2.00000000e-03
2.00000000e-03
2.00000000e-03
2.00000000e-03
2.00000000e-03
2.00000000e-03
2.00000000e-03
2.00000000e-03
2.00000000e-03
2.00000000e-03
2.00000000e-03
2.00000000e-03
2.00000000e-03
2.00000000e-03
2.00000000e-03
2.00000000e-03
2.00000000e-03
2.00000000e-03
2.00000000e-03
2.00000000e-03
2.00000000e-03
2.00000000e-03
2.00000000e-03
2.00000000e-03
2.00000000e-03
2.00000000e-03
2.00000000e-03
2.00000000e-03
2.00000000e-03
2.00000000e-03
2.00000000e-03
2.00000000e-03
2.00000000e-03
2.00000000e-03
2.00000000e-03
2.00000000e-03
2.00000000e-03
2.00000000e-03
2.00000000e-03
2.00000000e-03
2.00000000e-03
2.00000000e-03
2.00000000e-03
2.00000000e-03
2.00000000e-03
2.00000000e-03
2.00000000e-03
2.00000000e-03
2.00000000e-03
2.00000000e-03
2.00000000e-03
2.00000000e-03
2.00000000e-03
2.00000000e-03
2.00000000e-03
2.00000000e-03
2.00000000e-03
2.00000000e-03
2.00000000e-03
2.00000000e-03
2.00000000e-03
2.00000000e-03
2.00000000e-03
2.00000000e-03
2.00000000e-03
2.00000000e-03
2.00000000e-03
2.00000000e-03
2.00000000e-03
2.00000000e-03
2.00000000e-03
2.00000000e-03
2.00000000e-03
2.00000000e-03
2.00000000e-03
2.00000000e-03
2.00000000e-03
2.00000000e-03
2.00000000e-03
2.00000000e-03
2.00000000e-03
2.00000000e-03
2.00000000e-03
2.00000000e-03
2.00000000e-03
2.00000000e-03
2.00000000e-03
2.00000000e-03
2.00000000e-03
2.00000000e-03
2.00000000e-03
2.00000000e-03
2.00000000e-03
2.00000000e-03
2.00000000e-03
2.00000000e-03
2.00000000e-03
2.00000000e-03
2.00000000e-03
2.00000000e-03
2.00000000e-03
2.00000000e-03
2.00000000e-03
2.00000000e-03
2.00000000e-03
2.00000000e-03
2.00000000e-03
2.00000000e-03
2.00000000e-03
2.00000000e-03
2.00000000e-03
2.00000000e-03
2.00000000e-03
2.00000000e-03
2.00000000e-03
2.00000000e-03
2.00000000e-03
2.00000000e-03
2.00000000e-03
2.00000000e-03
2.00000000e-03
2.00000000e-03
2.00000000e-03
