# vtk DataFile Version 2.0
Particle data
ASCII
DATASET POLYDATA
POINTS 469 double
2.63963419e-02	-2.49107644e-02	8.69293453e-03
1.54709665e-02	-2.91126919e-02	1.29036563e-02
5.28089310e-03	-2.83244119e-02	4.53389989e-03
3.56522006e-02	1.32636477e-02	1.79550631e-02
1.18167352e-02	-2.57953823e-02	2.54983150e-03
3.03158641e-02	-2.67836783e-02	2.64484116e-03
2.36943614e-02	-2.44955428e-02	1.13492750e-02
2.62958471e-02	-3.81912092e-03	1.79550595e-02
7.75274912e-03	-3.55599632e-02	1.81111555e-02
1.10973555e-02	1.59652896e-03	1.60914027e-02
3.42978136e-02	-1.97722626e-02	1.83765034e-02
1.74264120e-02	-2.70894076e-02	1.79964471e-02
-6.19613810e-03	-4.11744932e-02	1.17073500e-02
7.91201179e-03	-2.34906134e-02	2.07748878e-03
3.24822458e-02	-2.26736915e-02	1.46039080e-02
2.71424672e-02	6.45261461e-03	1.29961435e-02
3.45447136e-02	7.65159435e-03	1.48005628e-02
1.32944678e-02	-3.48325171e-02	2.14253835e-03
3.04496926e-02	-2.39523531e-03	1.29813377e-02
3.44218914e-02	-1.67451055e-02	1.11170188e-02
3.45608917e-02	-1.22687540e-02	2.07080434e-03
2.34828376e-03	-3.63676676e-02	1.80355065e-02
3.00259299e-02	1.50866798e-02	1.10466281e-02
1.73964287e-02	-1.03832894e-02	2.16027926e-03
6.92029781e-03	-1.90525132e-02	2.13483474e-03
2.72995625e-02	1.64413439e-02	1.38153638e-02
3.95594233e-02	-5.36877776e-03	1.40023080e-02
8.89520135e-03	-3.61486118e-02	1.36664092e-02
3.90770386e-02	7.94482366e-03	1.54674156e-02
1.90044586e-02	-1.62517757e-02	1.38336030e-02
8.40057073e-03	-3.37313581e-02	1.09426742e-02
1.96144338e-02	-3.52272859e-02	2.19144422e-03
1.42240657e-02	-3.35628658e-02	5.60057252e-03
6.94189205e-03	-2.01306200e-02	1.75402042e-02
3.96369863e-03	-1.62860223e-02	8.49713196e-03
4.37700604e-03	-3.21086960e-02	1.19013926e-02
3.17433975e-02	-2.53228556e-02	6.74686463e-03
3.68440763e-02	-5.92127575e-04	9.21023493e-03
1.89840356e-02	-2.64915815e-02	1.10730573e-02
1.40570501e-02	-1.44237835e-02	3.40702154e-03
3.59408426e-02	-4.54169689e-03	7.97603852e-03
1.70450522e-02	-3.67679866e-02	1.54246690e-02
-8.30710807e-03	-2.71359528e-02	2.20496372e-03
2.15771875e-02	-1.92317180e-02	1.42246076e-02
3.05790490e-02	1.21907646e-02	1.47334853e-02
3.44673299e-02	-1.21346360e-02	1.16152932e-02
2.76450012e-02	-1.38266627e-02	1.39250322e-02
2.50829150e-02	-1.31709754e-02	6.47137605e-03
2.13599084e-02	-7.46204205e-03	1.30360131e-02
2.21185502e-02	-2.01180643e-02	1.81969077e-02
1.84851450e-02	-1.63481574e-02	1.71336969e-03
1.72437036e-02	-1.41017700e-02	4.70932403e-03
3.35844647e-02	9.32227828e-03	1.77145398e-02
2.53032464e-02	-5.33051030e-03	6.91041426e-03
2.83106234e-02	1.55352788e-02	5.91117177e-03
3.94112216e-02	3.92655366e-03	1.42549293e-02
1.52834261e-02	1.86876420e-03	1.01064297e-02
3.08085040e-02	-1.23716391e-02	1.53082081e-02
2.00406131e-02	5.53841679e-03	1.25927485e-02
1.12955771e-02	-3.32601312e-03	1.75174505e-02
-6.26454955e-03	-2.64767789e-02	1.80067270e-02
1.49585923e-02	-1.05280515e-02	1.11726440e-02
1.90282897e-02	-1.68450138e-02	1.81874128e-02
3.49157792e-02	5.43922364e-03	1.10334268e-02
2.64734106e-03	-3.32675462e-02	4.55617702e-03
3.72860908e-02	-1.41619824e-02	6.73130346e-03
-8.82540185e-03	-2.38298507e-02	6.33655599e-03
1.40353558e-02	-2.93463707e-02	1.78830394e-02
2.34923821e-02	1.21014775e-02	9.83689434e-03
-5.59294616e-03	-3.48514691e-02	9.81400424e-03
3.93748697e-02	-3.64367919e-03	6.49746675e-03
3.61827660e-03	-3.74703575e-02	2.04758318e-03
2.94733894e-02	-1.91060871e-02	1.80245842e-02
3.53486215e-02	-8.74482660e-03	8.69076883e-03
2.23177775e-02	-3.27125462e-02	5.77785340e-03
3.87572203e-02	-7.97397580e-03	1.82621456e-02
3.22967245e-02	-2.11621941e-03	6.22617786e-03
1.96447707e-02	-2.34814010e-02	9.49503642e-03
-9.58588535e-03	-3.79643505e-02	1.75003840e-02
2.07481195e-02	-2.61816645e-03	1.80643961e-02
3.06700420e-02	-1.12329733e-02	5.55817861e-03
1.03899633e-02	-1.58334608e-02	7.66306441e-03
6.96188795e-03	-1.01404556e-02	1.81256657e-03
6.53875158e-03	-1.54967515e-02	1.79789072e-02
5.23170420e-03	-1.45491739e-02	3.82312162e-03
3.72762348e-02	-1.54980014e-02	1.96284317e-03
2.09998227e-02	-3.04343366e-02	1.48158915e-02
3.31998250e-02	1.19246634e-02	1.32733994e-02
-1.19120877e-03	-2.61788238e-02	6.36769951e-03
2.62527825e-02	5.74216680e-04	6.05419593e-03
3.45649129e-02	-1.02781598e-02	5.23617997e-03
2.25542076e-02	-2.17932329e-02	1.91397179e-03
3.74574070e-03	-3.64430916e-02	5.93581960e-03
3.95083977e-02	-4.48078714e-03	9.76033342e-03
7.59285973e-03	-2.93018280e-02	8.10968228e-03
6.76637625e-03	-4.03584201e-02	8.31761091e-03
3.30748979e-02	8.74384549e-03	7.92557038e-03
2.01657558e-02	5.38124146e-03	1.79628282e-02
1.21999239e-02	-1.64670633e-02	1.78967898e-02
1.14816648e-02	-2.04635797e-02	8.92076787e-03
2.23822640e-02	3.37461508e-03	2.66145899e-03
2.49204218e-02	8.17268969e-04	9.31491293e-03
3.38034185e-02	4.13122082e-03	1.38476932e-02
-5.41718210e-03	-3.89455755e-02	1.67809768e-02
2.26188757e-02	6.94926219e-03	9.79806348e-03
2.33041738e-02	-1.21436340e-02	1.71499880e-03
2.61476435e-02	6.99301297e-03	1.78175224e-03
1.92811543e-02	-8.76367017e-03	4.76242326e-03
-2.28248951e-03	-1.39982572e-02	2.01327168e-03
1.49698646e-02	-2.41316213e-02	4.98051126e-03
2.67318591e-02	5.06252937e-03	4.74694737e-03
3.60477197e-02	-8.77013108e-03	1.79126666e-02
3.06010667e-02	-1.37728243e-02	1.17745503e-02
3.21942938e-02	7.22516932e-03	1.86019392e-03
8.43415865e-04	-2.32769865e-02	1.39369190e-02
1.99997453e-02	7.38025437e-03	2.02926679e-03
3.95282493e-02	1.63534417e-03	1.05799696e-02
1.62707986e-02	-4.67939587e-03	8.86180060e-03
1.01287416e-02	-2.97066457e-02	1.07877834e-02
1.80653101e-02	-3.71416276e-02	5.88688740e-03
2.74822537e-02	-1.71014563e-02	1.93262609e-03
1.42408246e-02	-1.73572211e-02	1.61466223e-02
3.65490378e-02	-1.60863301e-02	1.76082827e-02
-9.64297021e-03	-3.53983702e-02	6.92640899e-03
-1.55045559e-03	-4.01907113e-02	1.81042083e-02
3.45610335e-02	-1.57133342e-02	4.52072890e-03
2.85413584e-02	-2.85572870e-02	5.40364148e-03
1.74133427e-02	-2.74964160e-02	7.32882180e-03
3.67874837e-02	3.17370050e-03	9.04453512e-03
3.09316298e-02	-5.90298261e-04	2.07706787e-03
3.61608886e-02	-1.50469350e-03	5.41369639e-03
4.47915717e-04	-4.10656964e-02	4.66092246e-03
3.18238011e-02	-9.19693398e-03	1.83182063e-02
1.44488719e-02	-3.32706817e-02	1.27797155e-02
1.52501922e-02	-1.78215705e-02	9.43573320e-03
-9.33985943e-04	-1.95930757e-02	9.18486163e-03
8.77411083e-03	-3.26239207e-02	3.86970050e-03
2.72140994e-02	-2.60201608e-02	2.28375562e-03
2.12664387e-02	8.39701187e-04	1.40504240e-02
3.58487001e-02	-1.60567883e-03	1.75163342e-02
-1.81916467e-03	-2.00706146e-02	1.56970273e-02
3.16438909e-02	-1.61813364e-02	2.51104505e-03
3.25152551e-02	-1.62310520e-02	1.43652951e-02
4.04125892e-02	1.95094928e-03	5.85067775e-03
2.67932393e-02	-2.08746945e-02	8.54351355e-03
3.52265770e-02	-1.88589229e-02	2.36718096e-03
3.17935109e-02	1.58246733e-02	9.74740324e-03
3.27682848e-02	-2.26617849e-02	2.07579487e-03
2.19176425e-02	-6.68983811e-03	6.64771944e-03
9.57286535e-03	-1.02750194e-02	1.78742939e-02
2.84475587e-02	-1.77310465e-02	1.10145288e-02
2.45775921e-02	7.34787279e-03	1.85550151e-02
2.63265091e-02	-3.09035862e-02	1.14118547e-02
3.79710326e-02	-1.01549527e-02	1.49478863e-02
2.27551934e-02	-1.46420905e-02	1.15981103e-02
2.55516394e-02	-8.92038120e-03	1.04033378e-02
2.55298803e-02	-3.13370059e-02	5.78416783e-03
1.08145317e-02	-2.32335560e-02	5.68800418e-03
-8.92725002e-03	-3.88421464e-02	1.43517629e-02
2.57433833e-02	-1.45616188e-02	2.25160847e-03
8.06318404e-03	-3.66284414e-02	6.91452319e-03
2.73708761e-02	-2.98349311e-02	2.27026375e-03
1.40265676e-03	-1.40375204e-02	1.03300246e-02
3.38520889e-02	3.44952862e-03	1.79569995e-02
1.32362883e-02	-7.95257949e-03	2.06689279e-03
1.56844203e-02	-2.55027277e-02	1.24624212e-02
2.06121665e-02	-1.50823779e-02	7.34178845e-03
3.17350614e-02	-1.76709422e-02	5.15840475e-03
3.75851860e-02	8.66017362e-03	1.81111991e-02
2.59823451e-02	3.35333671e-03	9.22565346e-03
2.88063329e-02	-2.81716502e-02	9.34475352e-03
1.75813911e-02	3.87802949e-03	7.88449583e-03
2.55303436e-02	-1.42319166e-02	1.11676142e-02
1.89423814e-02	-2.68264076e-02	1.45534302e-02
2.19535363e-02	-2.06918136e-02	6.15656715e-03
2.28400856e-02	-2.89876243e-02	1.22472820e-02
1.29353899e-02	-3.78663992e-02	1.84639538e-03
-3.30784769e-03	-3.59918093e-02	1.75436609e-02
2.45125013e-02	-3.17562266e-02	1.78931527e-02
2.30944528e-02	-2.43997102e-03	4.69135031e-03
3.68860451e-02	1.21948112e-02	1.45801289e-02
4.75452839e-03	-1.98868128e-02	5.92198123e-03
1.80172070e-02	-2.18617799e-02	1.85248031e-02
3.42979188e-02	1.40686726e-02	6.61933300e-03
8.70153762e-03	-2.19536855e-02	1.05873056e-02
2.48457869e-02	-3.23929637e-02	9.26331040e-03
3.18532184e-02	-1.79154749e-02	1.37289179e-02
1.41434798e-02	-3.88955235e-02	1.33972126e-02
2.51820919e-02	-1.41313286e-02	1.80101451e-02
2.33015850e-02	-3.28049312e-02	1.98273801e-03
3.04048374e-02	1.34954583e-02	1.78595327e-02
1.10846810e-02	-5.82274395e-03	1.31719113e-02
3.11758257e-02	1.78472368e-02	1.39522216e-02
3.94501507e-02	8.86624591e-03	7.48028765e-03
1.33846140e-02	-1.40600069e-02	6.33483273e-03
2.86096660e-02	-9.41882232e-04	1.79788584e-02
1.13671257e-02	-1.00151791e-02	1.17502461e-02
2.17340019e-02	-1.10337095e-02	1.11993925e-02
2.10440686e-02	-1.78228928e-02	9.87426126e-03
2.54465198e-02	1.93575549e-02	1.82615261e-02
3.86042694e-02	-9.02090713e-03	1.13027667e-02
3.28911671e-02	-1.37025431e-02	7.79709834e-03
3.11581851e-02	4.15242399e-03	1.00511718e-02
-1.02915995e-03	-4.04811149e-02	1.18217950e-02
3.41909600e-02	1.68040449e-02	1.52891874e-02
2.85523851e-02	-1.36348268e-02	8.12711712e-03
2.72180142e-02	-9.97315199e-03	1.41402537e-02
3.99717665e-02	-3.15402881e-03	1.74004281e-02
6.49552416e-03	-3.24786048e-02	1.49821872e-02
3.28265562e-02	-4.91374439e-03	1.45995414e-02
-5.68844603e-03	-2.40754489e-02	1.41549300e-02
2.60214482e-02	1.00656690e-02	2.21240017e-03
1.08619587e-02	-2.11636601e-03	9.69828467e-03
2.51270685e-02	2.90574857e-03	1.33189923e-02
1.17704677e-02	-3.18423325e-02	1.50567947e-02
3.22923209e-03	-2.81163016e-02	3.53628209e-03
[...]
POINT_DATA 469
SCALARS Radius double 1
LOOKUP_TABLE default
2.00000000e-03
2.00000000e-03
2.00000000e-03
2.00000000e-03
2.00000000e-03
2.00000000e-03
2.00000000e-03
2.00000000e-03
2.00000000e-03
2.00000000e-03
2.00000000e-03
2.00000000e-03
2.00000000e-03
2.00000000e-03
2.00000000e-03
2.00000000e-03
2.00000000e-03
2.00000000e-03
2.00000000e-03
2.00000000e-03
2.00000000e-03
2.00000000e-03
2.00000000e-03
2.00000000e-03
2.00000000e-03
2.00000000e-03
2.00000000e-03
2.00000000e-03
2.00000000e-03
2.00000000e-03
2.00000000e-03
2.00000000e-03
2.00000000e-03
2.00000000e-03
2.00000000e-03
2.00000000e-03
2.00000000e-03
2.00000000e-03
2.00000000e-03
2.00000000e-03
2.00000000e-03
2.00000000e-03
2.00000000e-03
2.00000000e-03
2.00000000e-03
2.00000000e-03
2.00000000e-03
2.00000000e-03
2.00000000e-03
2.00000000e-03
2.00000000e-03
2.00000000e-03
2.00000000e-03
2.00000000e-03
2.00000000e-03
2.00000000e-03
2.00000000e-03
2.00000000e-03
2.00000000e-03
2.00000000e-03
2.00000000e-03
2.00000000e-03
2.00000000e-03
2.00000000e-03
2.00000000e-03
2.00000000e-03
2.00000000e-03
2.00000000e-03
2.00000000e-03
2.00000000e-03
2.00000000e-03
2.00000000e-03
2.00000000e-03
2.00000000e-03
2.00000000e-03
2.00000000e-03
2.00000000e-03
2.00000000e-03
2.00000000e-03
2.00000000e-03
2.00000000e-03
2.00000000e-03
2.00000000e-03
2.00000000e-03
2.00000000e-03
2.00000000e-03
2.00000000e-03
2.00000000e-03
2.00000000e-03
2.00000000e-03
2.00000000e-03
2.00000000e-03
2.00000000e-03
2.00000000e-03
2.00000000e-03
2.00000000e-03
2.00000000e-03
2.00000000e-03
2.00000000e-03
2.00000000e-03
2.00000000e-03
2.00000000e-03
2.00000000e-03
2.00000000e-03
2.00000000e-03
2.00000000e-03
2.00000000e-03
2.00000000e-03
2.00000000e-03
2.00000000e-03
2.00000000e-03
2.00000000e-03
2.00000000e-03
2.00000000e-03
2.00000000e-03
2.00000000e-03
2.00000000e-03
2.00000000e-03
2.00000000e-03
2.00000000e-03
2.00000000e-03
2.00000000e-03
2.00000000e-03
2.00000000e-03
2.00000000e-03
2.00000000e-03
2.00000000e-03
2.00000000e-03
2.00000000e-03
2.00000000e-03
2.00000000e-03
2.00000000e-03
2.00000000e-03
2.00000000e-03
2.00000000e-03
2.00000000e-03
2.00000000e-03
2.00000000e-03
2.00000000e-03
2.00000000e-03
2.00000000e-03
2.00000000e-03
2.00000000e-03
2.00000000e-03
2.00000000e-03
2.00000000e-03
2.00000000e-03
2.00000000e-03
2.00000000e-03
2.00000000e-03
2.00000000e-03
2.00000000e-03
2.00000000e-03
2.00000000e-03
2.00000000e-03
2.00000000e-03
2.00000000e-03
2.00000000e-03
2.00000000e-03
2.00000000e-03
2.00000000e-03
2.00000000e-03
2.00000000e-03
2.00000000e-03
2.00000000e-03
2.00000000e-03
2.00000000e-03
2.00000000e-03
2.00000000e-03
2.00000000e-03
2.00000000e-03
2.00000000e-03
2.00000000e-03
2.00000000e-03
2.00000000e-03
2.00000000e-03
2.00000000e-03
2.00000000e-03
2.00000000e-03
2.00000000e-03
2.00000000e-03
2.00000000e-03
2.00000000e-03
2.00000000e-03
2.00000000e-03
2.00000000e-03
2.00000000e-03
2.00000000e-03
2.00000000e-03
2.00000000e-03
2.00000000e-03
2.00000000e-03
2.00000000e-03
2.00000000e-03
2.00000000e-03
2.00000000e-03
2.00000000e-03
2.00000000e-03
2.00000000e-03
2.00000000e-03
2.00000000e-03
2.00000000e-03
2.00000000e-03
2.00000000e-03
2.00000000e-03
2.00000000e-03
2.00000000e-03
2.00000000e-03
2.00000000e-03
2.00000000e-03
2.00000000e-03
2.00000000e-03
2.00000000e-03
2.00000000e-03
2.00000000e-03
2.00000000e-03
2.00000000e-03
2.00000000e-03
2.00000000e-03
2.00000000e-03
2.00000000e-03
2.00000000e-03
2.00000000e-03
2.00000000e-03
2.00000000e-03
2.00000000e-03
2.00000000e-03
2.00000000e-03
2.00000000e-03
2.00000000e-03
2.00000000e-03
2.00000000e-03
2.00000000e-03
2.00000000e-03
2.00000000e-03
2.00000000e-03
2.00000000e-03
2.00000000e-03
2.00000000e-03
2.00000000e-03
2.00000000e-03
2.00000000e-03
2.00000000e-03
2.00000000e-03
2.00000000e-03
2.00000000e-03
2.00000000e-03
2.00000000e-03
2.00000000e-03
2.00000000e-03
2.00000000e-03
2.00000000e-03
2.00000000e-03
2.00000000e-03
2.00000000e-03
2.00000000e-03
2.00000000e-03
2.00000000e-03
2.00000000e-03
2.00000000e-03
2.00000000e-03
2.00000000e-03
2.00000000e-03
2.00000000e-03
2.00000000e-03
2.00000000e-03
2.00000000e-03
2.00000000e-03
2.00000000e-03
2.00000000e-03
2.00000000e-03
2.00000000e-03
2.00000000e-03
2.00000000e-03
2.00000000e-03
2.00000000e-03
2.00000000e-03
2.00000000e-03
2.00000000e-03
2.00000000e-03
2.00000000e-03
2.00000000e-03
2.00000000e-03
2.00000000e-03
2.00000000e-03
2.00000000e-03
2.00000000e-03
2.00000000e-03
2.00000000e-03
2.00000000e-03
2.00000000e-03
2.00000000e-03
2.00000000e-03
2.00000000e-03
2.00000000e-03
2.00000000e-03
2.00000000e-03
2.00000000e-03
2.00000000e-03
2.00000000e-03
2.00000000e-03
2.00000000e-03
2.00000000e-03
2.00000000e-03
2.00000000e-03
2.00000000e-03
2.00000000e-03
2.00000000e-03
2.00000000e-03
2.00000000e-03
2.00000000e-03
2.00000000e-03
2.00000000e-03
2.00000000e-03
2.00000000e-03
2.00000000e-03
2.00000000e-03
2.00000000e-03
2.00000000e-03
2.00000000e-03
2.00000000e-03
2.00000000e-03
2.00000000e-03
2.00000000e-03
2.00000000e-03
2.00000000e-03
2.00000000e-03
2.00000000e-03
2.00000000e-03
2.00000000e-03
2.00000000e-03
2.00000000e-03
2.00000000e-03
2.00000000e-03
2.00000000e-03
2.00000000e-03
2.00000000e-03
2.00000000e-03
2.00000000e-03
2.00000000e-03
2.00000000e-03
2.00000000e-03
2.00000000e-03
2.00000000e-03
2.00000000e-03
2.00000000e-03
2.00000000e-03
2.00000000e-03
2.00000000e-03
2.00000000e-03
2.00000000e-03
2.00000000e-03
2.00000000e-03
2.00000000e-03
2.00000000e-03
2.00000000e-03
2.00000000e-03
2.00000000e-03
2.00000000e-03
2.00000000e-03
2.00000000e-03
2.00000000e-03
2.00000000e-03
2.00000000e-03
2.00000000e-03
2.00000000e-03
2.00000000e-03
2.00000000e-03
2.00000000e-03
2.00000000e-03
2.00000000e-03
2.00000000e-03
2.00000000e-03
2.00000000e-03
2.00000000e-03
2.00000000e-03
2.00000000e-03
2.00000000e-03
2.00000000e-03
2.00000000e-03
2.00000000e-03
2.00000000e-03
2.00000000e-03
2.00000000e-03
2.00000000e-03
2.00000000e-03
2.00000000e-03
2.00000000e-03
2.00000000e-03
2.00000000e-03
2.00000000e-03
2.00000000e-03
2.00000000e-03
2.00000000e-03
2.00000000e-03
2.00000000e-03
2.00000000e-03
2.00000000e-03
2.00000000e-03
2.00000000e-03
2.00000000e-03
2.00000000e-03
2.00000000e-03
2.00000000e-03
2.00000000e-03
2.00000000e-03
2.00000000e-03
2.00000000e-03
2.00000000e-03
2.00000000e-03
2.00000000e-03
2.00000000e-03
2.00000000e-03
2.00000000e-03
2.00000000e-03
2.00000000e-03
2.00000000e-03
2.00000000e-03
2.00000000e-03
2.00000000e-03
2.00000000e-03
2.00000000e-03
2.00000000e-03
2.00000000e-03
2.00000000e-03
2.00000000e-03
2.00000000e-03
2.00000000e-03
2.00000000e-03
2.00000000e-03
2.00000000e-03
2.00000000e-03
2.00000000e-03
2.00000000e-03
2.00000000e-03
2.00000000e-03
2.00000000e-03
2.00000000e-03
2.00000000e-03
2.00000000e-03
2.00000000e-03
2.00000000e-03
2.00000000e-03
2.00000000e-03
2.00000000e-03
2.00000000e-03
2.00000000e-03
2.00000000e-03
2.00000000e-03
2.00000000e-03
2.00000000e-03
2.00000000e-03
2.00000000e-03
2.00000000e-03
2.00000000e-03
2.00000000e-03
2.00000000e-03
2.00000000e-03
2.00000000e-03
2.00000000e-03
2.00000000e-03
2.00000000e-03
2.00000000e-03
2.00000000e-03
2.00000000e-03
2.00000000e-03
2.00000000e-03
2.00000000e-03
2.00000000e-03
