# vtk DataFile Version 2.0
Particle data
ASCII
DATASET POLYDATA
POINTS 469 double
2.55883124e-02	-2.58531064e-02	8.67035990e-03
1.46859807e-02	-2.94882889e-02	1.29025311e-02
4.87604082e-03	-2.79304177e-02	4.24605685e-03
3.65325184e-02	1.30859657e-02	1.79522125e-02
1.09935846e-02	-2.60491061e-02	2.53266805e-03
2.94854595e-02	-2.79041865e-02	2.65393359e-03
2.29671875e-02	-2.52583039e-02	1.13864113e-02
2.64433990e-02	-4.14712258e-03	1.78778772e-02
6.87003679e-03	-3.55037672e-02	1.80719251e-02
1.38298607e-02	4.43262109e-03	1.56264206e-02
3.37318053e-02	-2.06329092e-02	1.83530904e-02
1.66125372e-02	-2.76545248e-02	1.80163216e-02
-7.40250279e-03	-4.10796023e-02	1.15912444e-02
7.72814985e-03	-2.29342626e-02	2.05702645e-03
3.16951318e-02	-2.37585928e-02	1.46341676e-02
2.79677087e-02	6.79906117e-03	1.27739799e-02
3.50814566e-02	7.14823016e-03	1.47327560e-02
1.24154642e-02	-3.50454599e-02	2.18819511e-03
3.05480529e-02	-3.03663749e-03	1.30089787e-02
3.39695684e-02	-1.75780494e-02	1.10761544e-02
3.43056250e-02	-1.30527913e-02	2.07134835e-03
1.35654319e-03	-3.60203870e-02	1.80353462e-02
3.12720664e-02	1.52824017e-02	1.13381639e-02
1.76167461e-02	-1.01688463e-02	2.17466566e-03
7.49316064e-03	-1.75075907e-02	2.12579337e-03
2.90046422e-02	1.72837439e-02	1.40821272e-02
3.93370415e-02	-6.84271035e-03	1.40158050e-02
7.85145940e-03	-3.64366475e-02	1.36480700e-02
3.93968032e-02	7.07045838e-03	1.55020385e-02
1.86435592e-02	-1.65888101e-02	1.38814783e-02
7.66142194e-03	-3.37725378e-02	1.11037697e-02
1.85568980e-02	-3.57115698e-02	2.17706449e-03
1.33077991e-02	-3.38768909e-02	5.57720501e-03
7.69799164e-03	-1.87751810e-02	1.75798931e-02
6.34450782e-03	-1.37358809e-02	8.46234983e-03
3.59530929e-03	-3.20764220e-02	1.18440792e-02
3.08352953e-02	-2.64902637e-02	6.79444681e-03
3.67087718e-02	-1.81837457e-03	9.18854101e-03
1.82131724e-02	-2.70624803e-02	1.11621232e-02
1.40294630e-02	-1.39724996e-02	3.36561779e-03
3.57386360e-02	-5.61111771e-03	8.02535512e-03
1.58786994e-02	-3.74431065e-02	1.54587090e-02
-6.29890781e-03	-2.44507893e-02	2.21743618e-03
2.09646693e-02	-1.97620598e-02	1.42580380e-02
3.15763435e-02	1.21349157e-02	1.48604061e-02
3.41603685e-02	-1.31059914e-02	1.15985665e-02
2.72709280e-02	-1.46846516e-02	1.39524465e-02
2.48799848e-02	-1.37559114e-02	6.44889406e-03
2.15580366e-02	-7.49248460e-03	1.27713014e-02
2.16005688e-02	-2.06486950e-02	1.82007000e-02
1.81268100e-02	-1.68151307e-02	1.64384845e-03
1.72785267e-02	-1.40099639e-02	4.60201188e-03
3.42056024e-02	9.32474118e-03	1.76671499e-02
2.54929670e-02	-5.56039995e-03	7.04993897e-03
2.97093424e-02	1.65405647e-02	5.40586269e-03
3.95679637e-02	2.76604018e-03	1.42327208e-02
1.83720881e-02	4.90812519e-03	1.03574424e-02
3.05277365e-02	-1.32910552e-02	1.53060112e-02
2.19040913e-02	7.96798794e-03	1.28961634e-02
1.32105941e-02	-8.70223021e-04	1.73909833e-02
-4.88407333e-03	-2.38411817e-02	1.80021761e-02
1.60332702e-02	-9.40573765e-03	1.11932841e-02
1.89571354e-02	-1.71739999e-02	1.82269539e-02
3.54446507e-02	4.62031330e-03	1.11132285e-02
1.60323572e-03	-3.33905822e-02	4.68558315e-03
3.69013340e-02	-1.51859340e-02	6.75118472e-03
-6.18156586e-03	-2.04052232e-02	6.86864197e-03
1.32936533e-02	-2.94067008e-02	1.78802000e-02
2.55813659e-02	1.39996655e-02	1.03201739e-02
-5.37197400e-03	-3.31971356e-02	9.83363317e-03
3.92031669e-02	-4.90414109e-03	6.52282392e-03
2.64467038e-03	-3.72036470e-02	2.03599545e-03
2.88355130e-02	-2.00575897e-02	1.80472345e-02
3.50770402e-02	-1.00042729e-02	8.72299468e-03
2.12690795e-02	-3.32647599e-02	5.76485333e-03
3.84695099e-02	-9.34355560e-03	1.83149930e-02
3.24451588e-02	-2.76666889e-03	6.18391498e-03
1.89153380e-02	-2.42715298e-02	9.55101036e-03
-1.02973621e-02	-3.71744603e-02	1.72755890e-02
2.14385534e-02	-2.60793984e-03	1.80851855e-02
3.03787257e-02	-1.21349167e-02	5.55364211e-03
1.11891475e-02	-1.47977697e-02	7.75594126e-03
8.75084504e-03	-7.08806445e-03	1.84111219e-03
7.51744606e-03	-1.36995066e-02	1.79749030e-02
7.15333195e-03	-1.18616588e-02	3.71048067e-03
3.69873083e-02	-1.63374827e-02	1.95627985e-03
2.00276058e-02	-3.09583241e-02	1.47820261e-02
3.39705857e-02	1.12196489e-02	1.32391907e-02
8.78792666e-05	-2.34645890e-02	6.37511266e-03
2.69931362e-02	6.59885115e-04	6.02166160e-03
3.42892629e-02	-1.13153296e-02	5.20549428e-03
2.18119742e-02	-2.26149594e-02	1.92664039e-03
2.67654217e-03	-3.62627911e-02	5.96520277e-03
3.91962423e-02	-5.90912507e-03	9.74306080e-03
6.75497693e-03	-2.89555761e-02	8.32539709e-03
5.65528736e-03	-4.05374869e-02	8.33218180e-03
3.39101432e-02	8.31666768e-03	8.12464455e-03
2.10820163e-02	6.61676810e-03	1.82227966e-02
1.27485327e-02	-1.54484610e-02	1.78559828e-02
1.14188811e-02	-2.03870920e-02	9.16416960e-03
2.36525637e-02	4.08880649e-03	2.51437635e-03
2.59683557e-02	9.79792439e-04	9.47533623e-03
3.44312008e-02	3.73450642e-03	1.38682754e-02
-6.49606823e-03	-3.84965495e-02	1.66935456e-02
2.46255739e-02	8.85111100e-03	9.92745430e-03
2.32055728e-02	-1.24226735e-02	1.68523854e-03
2.69781375e-02	7.29309609e-03	1.84593134e-03
1.95205765e-02	-8.62175149e-03	4.52435567e-03
3.19444189e-04	-1.06465584e-02	1.99605389e-03
1.41342602e-02	-2.48027736e-02	4.96019991e-03
2.74664478e-02	4.77582095e-03	4.66765902e-03
3.59268225e-02	-9.78224286e-03	1.79077733e-02
3.02681094e-02	-1.46844002e-02	1.18331996e-02
3.29334370e-02	6.90146367e-03	1.88406299e-03
1.95331706e-03	-2.09223422e-02	1.41331607e-02
2.16468550e-02	9.02010987e-03	2.01802098e-03
3.93677212e-02	3.38501493e-04	1.06086291e-02
1.82747109e-02	-2.85756459e-03	9.15659008e-03
9.46722872e-03	-2.95618668e-02	1.08740020e-02
1.68324168e-02	-3.78794252e-02	5.85976867e-03
2.69328224e-02	-1.79503568e-02	1.93812227e-03
1.44168065e-02	-1.70641034e-02	1.63235559e-02
3.60392378e-02	-1.69090788e-02	1.76641457e-02
-9.37329598e-03	-3.44211036e-02	7.34251559e-03
-2.64501622e-03	-4.01147285e-02	1.81081046e-02
3.42005864e-02	-1.65601830e-02	4.53341611e-03
2.76971598e-02	-2.94417316e-02	5.41640375e-03
1.67719650e-02	-2.77281762e-02	7.44919203e-03
3.69122107e-02	1.84972233e-03	9.05482453e-03
3.12562376e-02	-1.26907719e-03	2.08428302e-03
3.61298722e-02	-2.67198786e-03	5.39379393e-03
-7.32589376e-04	-4.11983342e-02	4.69537252e-03
3.16476545e-02	-1.00784945e-02	1.83154989e-02
1.36472049e-02	-3.32406393e-02	1.27777865e-02
1.51063054e-02	-1.75613147e-02	9.59680941e-03
1.47864679e-03	-1.55152954e-02	8.55490727e-03
7.86438598e-03	-3.25676860e-02	3.87662649e-03
2.63920725e-02	-2.70212544e-02	2.29062619e-03
2.22658857e-02	1.93936979e-03	1.39797588e-02
3.57179488e-02	-2.77662419e-03	1.75408811e-02
4.00107959e-05	-1.66005271e-02	1.56506985e-02
3.11813189e-02	-1.70041868e-02	2.52312903e-03
3.20527924e-02	-1.71400461e-02	1.43180204e-02
4.03686152e-02	6.85584423e-04	5.83834249e-03
2.61238173e-02	-2.18937731e-02	8.55204200e-03
3.46756748e-02	-1.97034844e-02	2.34136692e-03
3.26920695e-02	1.54880612e-02	9.80683409e-03
3.20294571e-02	-2.36791301e-02	2.06968854e-03
2.21757532e-02	-7.03794414e-03	6.53577956e-03
1.09980261e-02	-8.20450149e-03	1.79024966e-02
2.79223711e-02	-1.84341017e-02	1.09436556e-02
2.52511497e-02	7.74250353e-03	1.85407910e-02
2.53920430e-02	-3.17402308e-02	1.14195879e-02
3.77506272e-02	-1.13655600e-02	1.50274905e-02
2.22914993e-02	-1.53688197e-02	1.16306095e-02
2.54280581e-02	-9.57807243e-03	1.03704947e-02
2.46171938e-02	-3.21011311e-02	5.79001399e-03
1.02494175e-02	-2.34859625e-02	5.77204195e-03
-1.01274733e-02	-3.84643765e-02	1.43309544e-02
2.53729991e-02	-1.53509809e-02	2.23209806e-03
7.13504720e-03	-3.66736995e-02	6.96430839e-03
2.64480922e-02	-3.06074614e-02	2.27154539e-03
3.74627091e-03	-9.57985431e-03	1.06627319e-02
3.41319916e-02	2.95060652e-03	1.79863287e-02
1.45557337e-02	-5.90052181e-03	2.13321894e-03
1.49641529e-02	-2.59658535e-02	1.25717384e-02
2.01905099e-02	-1.57582519e-02	7.38066188e-03
3.11819044e-02	-1.85441675e-02	5.15897932e-03
3.80344913e-02	7.85755228e-03	1.81044175e-02
2.68978961e-02	3.78922555e-03	8.93650513e-03
2.79958777e-02	-2.91078034e-02	9.37991496e-03
2.01191953e-02	6.93828179e-03	7.51467017e-03
2.51379321e-02	-1.49807091e-02	1.11585596e-02
1.80686663e-02	-2.75117512e-02	1.45490166e-02
2.11711798e-02	-2.14489043e-02	6.24446192e-03
2.20433983e-02	-2.97157556e-02	1.22201928e-02
1.17095627e-02	-3.84051139e-02	1.82086869e-03
-4.27703295e-03	-3.55996618e-02	1.74743769e-02
2.35694664e-02	-3.24029354e-02	1.79130235e-02
2.38162412e-02	-2.56114150e-03	4.67711070e-03
3.74686982e-02	1.18037940e-02	1.45718033e-02
6.30278888e-03	-1.78259193e-02	5.92212448e-03
1.73636107e-02	-2.23335648e-02	1.85734226e-02
3.52295297e-02	1.37164434e-02	6.54834725e-03
9.23353247e-03	-2.09722329e-02	1.12188282e-02
2.39860975e-02	-3.30563860e-02	9.23324555e-03
3.13302406e-02	-1.86797581e-02	1.37771317e-02
1.29908567e-02	-3.93578661e-02	1.33368939e-02
2.47832684e-02	-1.46932909e-02	1.79793149e-02
2.21939298e-02	-3.35550046e-02	2.02006210e-03
3.11084270e-02	1.34826332e-02	1.78195374e-02
1.30840835e-02	-2.76353551e-03	1.31032284e-02
3.23280560e-02	1.81107970e-02	1.41728308e-02
3.98691858e-02	7.79799931e-03	7.46865260e-03
1.42292003e-02	-1.29472348e-02	6.39456409e-03
2.86924444e-02	-1.55217270e-03	1.79617944e-02
1.30526245e-02	-6.90518352e-03	1.17752430e-02
2.16619500e-02	-1.15845712e-02	1.09807725e-02
2.05735190e-02	-1.82109428e-02	9.85464615e-03
2.67064804e-02	2.04414461e-02	1.82953925e-02
3.83538843e-02	-1.02362082e-02	1.13331787e-02
3.25350479e-02	-1.46316884e-02	7.81098452e-03
3.16991438e-02	3.49654059e-03	1.01453631e-02
-2.18036841e-03	-4.03051486e-02	1.17999140e-02
3.51331393e-02	1.62720950e-02	1.51555396e-02
2.82481441e-02	-1.44209973e-02	8.10654545e-03
2.68755436e-02	-1.07528022e-02	1.40965475e-02
3.97300654e-02	-4.58775491e-03	1.73575071e-02
5.78846394e-03	-3.22804902e-02	1.49506945e-02
3.26413293e-02	-5.88546336e-03	1.46243414e-02
-3.62215602e-03	-2.08563213e-02	1.42085945e-02
2.70992392e-02	1.03565064e-02	2.20420893e-03
1.36717215e-02	1.25833790e-03	9.22950219e-03
2.60239926e-02	2.99986099e-03	1.34525608e-02
1.10030443e-02	-3.17806822e-02	1.50643301e-02
2.98225645e-03	-2.70911663e-02	3.86504533e-03
[...]
POINT_DATA 469
SCALARS Radius double 1
LOOKUP_TABLE default
2.00000000e-03
2.00000000e-03
2.00000000e-03
2.00000000e-03
2.00000000e-03
2.00000000e-03
2.00000000e-03
2.00000000e-03
2.00000000e-03
2.00000000e-03
2.00000000e-03
2.00000000e-03
2.00000000e-03
2.00000000e-03
2.00000000e-03
2.00000000e-03
2.00000000e-03
2.00000000e-03
2.00000000e-03
2.00000000e-03
2.00000000e-03
2.00000000e-03
2.00000000e-03
2.00000000e-03
2.00000000e-03
2.00000000e-03
2.00000000e-03
2.00000000e-03
2.00000000e-03
2.00000000e-03
2.00000000e-03
2.00000000e-03
2.00000000e-03
2.00000000e-03
2.00000000e-03
2.00000000e-03
2.00000000e-03
2.00000000e-03
2.00000000e-03
2.00000000e-03
2.00000000e-03
2.00000000e-03
2.00000000e-03
2.00000000e-03
2.00000000e-03
2.00000000e-03
2.00000000e-03
2.00000000e-03
2.00000000e-03
2.00000000e-03
2.00000000e-03
2.00000000e-03
2.00000000e-03
2.00000000e-03
2.00000000e-03
2.00000000e-03
2.00000000e-03
2.00000000e-03
2.00000000e-03
2.00000000e-03
2.00000000e-03
2.00000000e-03
2.00000000e-03
2.00000000e-03
2.00000000e-03
2.00000000e-03
2.00000000e-03
2.00000000e-03
2.00000000e-03
2.00000000e-03
2.00000000e-03
2.00000000e-03
2.00000000e-03
2.00000000e-03
2.00000000e-03
2.00000000e-03
2.00000000e-03
2.00000000e-03
2.00000000e-03
2.00000000e-03
2.00000000e-03
2.00000000e-03
2.00000000e-03
2.00000000e-03
2.00000000e-03
2.00000000e-03
2.00000000e-03
2.00000000e-03
2.00000000e-03
2.00000000e-03
2.00000000e-03
2.00000000e-03
2.00000000e-03
2.00000000e-03
2.00000000e-03
2.00000000e-03
2.00000000e-03
2.00000000e-03
2.00000000e-03
2.00000000e-03
2.00000000e-03
2.00000000e-03
2.00000000e-03
2.00000000e-03
2.00000000e-03
2.00000000e-03
2.00000000e-03
2.00000000e-03
2.00000000e-03
2.00000000e-03
2.00000000e-03
2.00000000e-03
2.00000000e-03
2.00000000e-03
2.00000000e-03
2.00000000e-03
2.00000000e-03
2.00000000e-03
2.00000000e-03
2.00000000e-03
2.00000000e-03
2.00000000e-03
2.00000000e-03
2.00000000e-03
2.00000000e-03
2.00000000e-03
2.00000000e-03
2.00000000e-03
2.00000000e-03
2.00000000e-03
2.00000000e-03
2.00000000e-03
2.00000000e-03
2.00000000e-03
2.00000000e-03
2.00000000e-03
2.00000000e-03
2.00000000e-03
2.00000000e-03
2.00000000e-03
2.00000000e-03
2.00000000e-03
2.00000000e-03
2.00000000e-03
2.00000000e-03
2.00000000e-03
2.00000000e-03
2.00000000e-03
2.00000000e-03
2.00000000e-03
2.00000000e-03
2.00000000e-03
2.00000000e-03
2.00000000e-03
2.00000000e-03
2.00000000e-03
2.00000000e-03
2.00000000e-03
2.00000000e-03
2.00000000e-03
2.00000000e-03
2.00000000e-03
2.00000000e-03
2.00000000e-03
2.00000000e-03
2.00000000e-03
2.00000000e-03
2.00000000e-03
2.00000000e-03
2.00000000e-03
2.00000000e-03
2.00000000e-03
2.00000000e-03
2.00000000e-03
2.00000000e-03
2.00000000e-03
2.00000000e-03
2.00000000e-03
2.00000000e-03
2.00000000e-03
2.00000000e-03
2.00000000e-03
2.00000000e-03
2.00000000e-03
2.00000000e-03
2.00000000e-03
2.00000000e-03
2.00000000e-03
2.00000000e-03
2.00000000e-03
2.00000000e-03
2.00000000e-03
2.00000000e-03
2.00000000e-03
2.00000000e-03
2.00000000e-03
2.00000000e-03
2.00000000e-03
2.00000000e-03
2.00000000e-03
2.00000000e-03
2.00000000e-03
2.00000000e-03
2.00000000e-03
2.00000000e-03
2.00000000e-03
2.00000000e-03
2.00000000e-03
2.00000000e-03
2.00000000e-03
2.00000000e-03
2.00000000e-03
2.00000000e-03
2.00000000e-03
2.00000000e-03
2.00000000e-03
2.00000000e-03
2.00000000e-03
2.00000000e-03
2.00000000e-03
2.00000000e-03
2.00000000e-03
2.00000000e-03
2.00000000e-03
2.00000000e-03
2.00000000e-03
2.00000000e-03
2.00000000e-03
2.00000000e-03
2.00000000e-03
2.00000000e-03
2.00000000e-03
2.00000000e-03
2.00000000e-03
2.00000000e-03
2.00000000e-03
2.00000000e-03
2.00000000e-03
2.00000000e-03
2.00000000e-03
2.00000000e-03
2.00000000e-03
2.00000000e-03
2.00000000e-03
2.00000000e-03
2.00000000e-03
2.00000000e-03
2.00000000e-03
2.00000000e-03
2.00000000e-03
2.00000000e-03
2.00000000e-03
2.00000000e-03
2.00000000e-03
2.00000000e-03
2.00000000e-03
2.00000000e-03
2.00000000e-03
2.00000000e-03
2.00000000e-03
2.00000000e-03
2.00000000e-03
2.00000000e-03
2.00000000e-03
2.00000000e-03
2.00000000e-03
2.00000000e-03
2.00000000e-03
2.00000000e-03
2.00000000e-03
2.00000000e-03
2.00000000e-03
2.00000000e-03
2.00000000e-03
2.00000000e-03
2.00000000e-03
2.00000000e-03
2.00000000e-03
2.00000000e-03
2.00000000e-03
2.00000000e-03
2.00000000e-03
2.00000000e-03
2.00000000e-03
2.00000000e-03
2.00000000e-03
2.00000000e-03
2.00000000e-03
2.00000000e-03
2.00000000e-03
2.00000000e-03
2.00000000e-03
2.00000000e-03
2.00000000e-03
2.00000000e-03
2.00000000e-03
2.00000000e-03
2.00000000e-03
2.00000000e-03
2.00000000e-03
2.00000000e-03
2.00000000e-03
2.00000000e-03
2.00000000e-03
2.00000000e-03
2.00000000e-03
2.00000000e-03
2.00000000e-03
2.00000000e-03
2.00000000e-03
2.00000000e-03
2.00000000e-03
2.00000000e-03
2.00000000e-03
2.00000000e-03
2.00000000e-03
2.00000000e-03
2.00000000e-03
2.00000000e-03
2.00000000e-03
2.00000000e-03
2.00000000e-03
2.00000000e-03
2.00000000e-03
2.00000000e-03
2.00000000e-03
2.00000000e-03
2.00000000e-03
2.00000000e-03
2.00000000e-03
2.00000000e-03
2.00000000e-03
2.00000000e-03
2.00000000e-03
2.00000000e-03
2.00000000e-03
2.00000000e-03
2.00000000e-03
2.00000000e-03
2.00000000e-03
2.00000000e-03
2.00000000e-03
2.00000000e-03
2.00000000e-03
2.00000000e-03
2.00000000e-03
2.00000000e-03
2.00000000e-03
2.00000000e-03
2.00000000e-03
2.00000000e-03
2.00000000e-03
2.00000000e-03
2.00000000e-03
2.00000000e-03
2.00000000e-03
2.00000000e-03
2.00000000e-03
2.00000000e-03
2.00000000e-03
2.00000000e-03
2.00000000e-03
2.00000000e-03
2.00000000e-03
2.00000000e-03
2.00000000e-03
2.00000000e-03
2.00000000e-03
2.00000000e-03
2.00000000e-03
2.00000000e-03
2.00000000e-03
2.00000000e-03
2.00000000e-03
2.00000000e-03
2.00000000e-03
2.00000000e-03
2.00000000e-03
2.00000000e-03
2.00000000e-03
2.00000000e-03
2.00000000e-03
2.00000000e-03
2.00000000e-03
2.00000000e-03
2.00000000e-03
2.00000000e-03
2.00000000e-03
2.00000000e-03
2.00000000e-03
2.00000000e-03
2.00000000e-03
2.00000000e-03
2.00000000e-03
2.00000000e-03
2.00000000e-03
2.00000000e-03
2.00000000e-03
2.00000000e-03
2.00000000e-03
2.00000000e-03
2.00000000e-03
2.00000000e-03
2.00000000e-03
2.00000000e-03
2.00000000e-03
2.00000000e-03
2.00000000e-03
2.00000000e-03
2.00000000e-03
2.00000000e-03
2.00000000e-03
2.00000000e-03
2.00000000e-03
2.00000000e-03
2.00000000e-03
2.00000000e-03
2.00000000e-03
2.00000000e-03
2.00000000e-03
2.00000000e-03
2.00000000e-03
2.00000000e-03
2.00000000e-03
2.00000000e-03
2.00000000e-03
2.00000000e-03
2.00000000e-03
2.00000000e-03
2.00000000e-03
2.00000000e-03
2.00000000e-03
2.00000000e-03
2.00000000e-03
2.00000000e-03
2.00000000e-03
2.00000000e-03
2.00000000e-03
2.00000000e-03
2.00000000e-03
2.00000000e-03
2.00000000e-03
2.00000000e-03
2.00000000e-03
2.00000000e-03
2.00000000e-03
2.00000000e-03
2.00000000e-03
2.00000000e-03
2.00000000e-03
2.00000000e-03
2.00000000e-03
2.00000000e-03
2.00000000e-03
2.00000000e-03
2.00000000e-03
2.00000000e-03
2.00000000e-03
2.00000000e-03
2.00000000e-03
2.00000000e-03
2.00000000e-03
2.00000000e-03
2.00000000e-03
2.00000000e-03
2.00000000e-03
2.00000000e-03
2.00000000e-03
2.00000000e-03
