# vtk DataFile Version 2.0
Particle data
ASCII
DATASET POLYDATA
POINTS 469 double
2.39512885e-02	-2.84560410e-02	1.48636533e-02
2.22997630e-02	-1.94715075e-02	1.19429406e-02
4.89942489e-04	-3.94149097e-02	1.41962588e-02
3.17122592e-02	1.68209608e-03	8.53293258e-03
2.69319657e-02	-1.43394870e-02	1.65709887e-03
1.76579657e-02	-3.18587644e-02	2.60322063e-03
1.46282468e-02	-3.79853880e-02	1.85123375e-02
2.76346978e-02	5.96448354e-03	1.80267797e-02
-1.12135933e-02	-3.62049366e-02	1.71295388e-02
3.18410781e-02	1.56872646e-02	1.90883482e-02
2.74245972e-02	-2.58907369e-02	7.54380084e-03
1.56610573e-02	-2.75730469e-02	1.88276647e-02
-2.81308960e-03	-2.20515766e-02	9.87615946e-03
1.42893375e-02	-2.26497598e-02	5.05026784e-03
2.91200541e-02	-1.97976575e-02	1.42723007e-02
3.83388863e-02	7.78878574e-03	1.15315833e-02
1.93017243e-02	-8.24374998e-03	5.23545529e-03
1.29942507e-02	-2.34566891e-02	2.97346790e-03
2.47612485e-02	-1.62872325e-03	1.21970560e-02
2.55290792e-02	-2.92137525e-02	4.70402729e-03
3.06460918e-02	-2.25615873e-02	2.37215338e-03
-4.07318946e-03	-3.39429832e-02	1.76152657e-02
3.89562586e-02	3.78499985e-03	1.70139172e-03
3.17931662e-03	-3.70824698e-02	5.88295277e-03
9.26321882e-03	-3.16516637e-02	5.58145179e-03
3.36684109e-02	1.78275992e-02	7.45525638e-03
3.79814528e-02	-1.26038854e-02	1.38034036e-02
6.99753663e-03	-3.42904235e-02	1.78479344e-02
3.54636381e-02	-2.62375957e-03	1.15616833e-02
1.43997599e-02	-5.21972671e-03	1.71163295e-02
1.87163717e-02	-2.56277528e-02	9.58901487e-03
-1.10580871e-02	-3.88745834e-02	8.80047947e-03
1.36849937e-02	-2.77480715e-02	8.17544656e-03
4.39380777e-03	-2.68110074e-02	1.63542629e-02
2.13738456e-02	9.28039407e-03	1.06222048e-02
1.07621882e-02	-2.56906625e-02	1.23346606e-02
2.45506821e-02	-3.09657178e-02	9.47042227e-03
3.91948523e-02	-8.83822871e-03	9.67413114e-03
1.69450431e-02	-2.84415740e-02	1.39128343e-02
2.29714131e-02	-2.41260473e-02	4.81214170e-03
3.60654546e-02	-5.85785269e-03	1.20368452e-02
4.67178996e-03	-3.76746344e-02	1.59795961e-02
2.79498782e-02	1.79602267e-02	2.73859124e-03
2.41006922e-02	-2.75614486e-02	1.83712690e-02
1.08997406e-02	-1.62369324e-02	1.49492631e-02
3.11390310e-02	-1.84828867e-02	1.08445152e-02
2.63630892e-02	-9.73497524e-03	9.10406368e-03
3.50043012e-02	-1.30316302e-02	1.33616559e-02
2.28647037e-02	-6.49954536e-03	9.32721005e-03
2.86247249e-02	-2.87086000e-02	1.86239578e-02
2.68545767e-02	2.85649665e-03	1.27055715e-03
2.45558534e-02	-1.17990966e-02	7.79580469e-03
3.85840657e-02	-1.18778550e-02	1.32770473e-02
2.08705247e-02	-1.19590233e-04	2.92885562e-03
3.50849040e-02	1.39822656e-02	1.19044969e-02
3.19527719e-02	2.25878268e-03	1.50677176e-02
3.57027003e-02	1.55074517e-02	9.11143112e-03
3.31221992e-02	-1.17180942e-02	1.78274710e-02
1.11645683e-02	-7.42963646e-03	1.24732086e-02
2.09050793e-02	1.69633301e-03	1.32693887e-02
9.86075517e-03	-9.11996728e-03	1.33165689e-02
9.58596058e-03	-2.11997714e-02	1.34604789e-02
1.91095544e-02	-7.49513880e-03	1.81546127e-02
3.54769773e-02	2.67309849e-03	9.30795498e-03
6.68252385e-03	-2.75312910e-02	4.65180948e-03
2.94995443e-02	-1.82111783e-02	5.45291624e-03
3.55330510e-02	2.35498097e-02	3.04424758e-03
1.43635321e-02	-2.58981064e-02	1.48830658e-02
2.82926804e-02	1.26569151e-02	5.52923064e-03
-3.47204672e-03	-2.54085823e-02	3.99190119e-03
3.66230110e-02	-3.69311289e-03	8.55374691e-03
-8.25231151e-03	-3.23375885e-02	4.12030471e-03
2.69595853e-02	-2.99156476e-02	1.76824955e-02
2.84868268e-02	-2.63115393e-02	1.36834630e-02
4.10179644e-04	-4.04348781e-02	3.38440741e-03
3.34607174e-02	-3.63747185e-03	1.72616860e-02
1.66219564e-02	-6.08711157e-03	5.37727788e-03
1.92015353e-02	-3.45478883e-02	6.35954204e-03
-6.42447711e-04	-1.36031039e-02	1.79604201e-02
3.65295088e-02	4.63257870e-03	1.86087353e-02
3.25913542e-02	-1.26585927e-02	1.02289543e-02
1.99882556e-02	-1.03370573e-02	9.72008585e-03
9.36478474e-03	-1.70939471e-02	9.19565684e-03
6.32714932e-03	-2.08665993e-02	1.84123537e-02
4.62650419e-03	-1.52492788e-02	2.39948350e-03
3.37181225e-02	-2.47765886e-02	3.16531342e-03
2.21216587e-02	-1.68682251e-02	1.77333049e-02
3.93700160e-02	6.08468668e-03	1.06129470e-02
8.45554585e-03	-2.11933659e-02	6.38813477e-03
2.45902406e-02	4.93702213e-03	4.66652443e-03
3.61805961e-02	-1.57600076e-02	9.44787059e-03
2.64582271e-02	-2.45142288e-02	4.76600093e-03
-4.34624606e-03	-3.70250566e-02	9.25194729e-03
3.61300253e-02	-1.48040434e-02	8.48194985e-04
1.14834545e-02	-2.77647421e-02	1.12734087e-02
-1.49660758e-02	-3.54235592e-02	1.72899332e-02
4.02233823e-02	6.39377682e-03	7.05932661e-03
2.80542118e-02	1.51514019e-02	1.26037493e-02
3.01953211e-03	-3.11480219e-02	1.15659731e-02
1.64055926e-02	-2.98852886e-02	9.74668843e-03
2.64638305e-02	8.18171305e-03	9.06999457e-03
2.68158884e-02	3.65795104e-03	8.85503094e-03
3.66181601e-02	-3.13480120e-03	1.58840988e-02
-3.73183408e-03	-2.74423898e-02	1.68731980e-02
1.63772948e-02	-3.29599420e-03	1.10552148e-02
3.33353207e-02	-2.51036138e-02	1.10702571e-02
1.41139771e-02	-1.75766859e-02	8.42053936e-03
1.96594203e-02	-1.34047452e-03	7.31561621e-03
3.17753603e-02	1.81987699e-02	2.36960340e-03
2.32904429e-02	-2.10431423e-02	9.06705562e-03
3.36604081e-02	1.29580355e-02	2.20451382e-03
3.34266779e-02	-1.82630596e-02	1.81669448e-02
3.23113004e-02	-7.73830948e-03	1.74024397e-02
3.18063430e-02	8.04624584e-03	1.81386477e-03
-4.02887540e-03	-2.19409946e-02	1.63139615e-02
1.82810238e-02	5.99466397e-03	1.87934027e-03
3.25501972e-02	-2.32942795e-02	1.45099593e-02
3.57612580e-02	9.25014909e-03	4.24487242e-03
2.06390241e-02	-1.74565770e-02	5.62629214e-03
7.97613592e-03	-4.08148300e-02	2.76932136e-03
3.16528804e-02	-1.32616819e-02	2.26989794e-03
3.55868086e-03	-2.26894443e-02	1.47825785e-02
2.17042109e-02	-3.26774259e-02	1.68068704e-02
1.19662014e-02	-2.75029378e-03	4.63843870e-03
-7.65983618e-03	-3.80567993e-02	1.77714462e-02
3.29188694e-02	-2.53624910e-02	1.48782793e-02
1.47821349e-02	-3.40334617e-02	5.54509847e-03
1.82611780e-02	-3.18265554e-02	1.17539898e-02
3.27116583e-02	-1.07085044e-03	1.04145447e-02
3.00000353e-02	-9.57437125e-03	1.79410244e-03
3.21322739e-02	3.40760806e-03	1.60933285e-03
-9.77744977e-03	-3.24487463e-02	9.92630029e-03
2.97414226e-02	-1.58095445e-02	2.01131705e-02
1.22292699e-02	-3.51212886e-02	8.41064193e-03
1.77100630e-02	-1.54206888e-02	5.34591211e-03
2.19066143e-02	4.63319396e-03	1.00816782e-02
1.64451663e-02	-2.27575080e-02	6.91395397e-03
1.68218115e-02	-3.52363922e-02	1.44023275e-03
3.71326187e-03	-2.08499904e-02	1.16046385e-02
2.68598933e-02	2.88039214e-03	1.37026023e-02
1.74160769e-02	3.45941407e-03	1.79075919e-02
3.02878428e-02	-2.73771488e-02	1.03587200e-02
2.75356451e-02	-5.40036329e-03	1.22426401e-02
3.89316352e-02	-9.17154552e-03	9.54969092e-04
1.82135684e-02	-3.14163890e-02	5.64017921e-03
2.91371623e-02	-2.68744563e-02	2.78282746e-03
4.10658951e-02	8.19676171e-03	1.40829306e-03
2.33502129e-02	-2.41676402e-02	1.85170096e-03
1.92488318e-02	-1.47931518e-02	1.10244186e-02
2.76376359e-02	1.08575929e-02	1.41615096e-02
2.84426522e-02	-9.92258002e-03	1.75386245e-02
1.49682096e-02	-1.28732571e-02	1.14920224e-02
1.71267746e-02	-3.17715695e-02	9.23735092e-03
3.11079674e-02	-1.34019248e-02	1.20758536e-02
2.68155474e-02	-1.98879317e-03	6.67544042e-03
3.24024048e-02	7.45989993e-03	1.55373458e-02
1.37194336e-02	-3.21096371e-02	2.00928698e-03
2.25298645e-02	-1.30345691e-02	5.24084703e-03
-4.69463625e-03	-1.93750224e-02	1.48253525e-02
1.97677126e-02	-2.35052459e-02	5.51146637e-03
7.65843969e-03	-3.62027374e-02	9.54944772e-03
2.08000074e-02	-3.38567587e-02	2.34873006e-03
9.55023718e-03	-9.40573374e-03	7.37949343e-03
3.58960370e-02	-5.51942533e-06	1.81233404e-02
1.21637325e-02	-1.29219090e-02	7.43206123e-03
2.07098177e-02	-2.35353962e-02	1.29588392e-02
3.04958128e-02	1.78207264e-03	4.91517342e-03
1.65469736e-02	-3.70310279e-02	8.25969364e-03
3.54071275e-02	2.33344215e-03	1.85370785e-02
3.75439861e-02	6.17151844e-03	7.22752038e-03
9.08520548e-03	-3.77419737e-02	1.60323838e-02
2.79676018e-02	1.27183230e-02	1.03717718e-02
3.66762939e-02	-1.12544519e-02	1.76300317e-02
1.90862336e-02	-2.34057274e-02	1.66344254e-02
2.34020145e-02	-3.26481198e-02	1.78009010e-02
-2.01463805e-03	-3.99962303e-02	1.09317911e-02
5.49264035e-03	-2.78130370e-02	2.15295616e-03
-4.28611571e-03	-2.98441188e-02	1.20674226e-02
-1.89012995e-03	-3.78003029e-02	1.52886600e-02
-3.56560354e-03	-3.60334130e-02	5.63503660e-03
3.56102602e-02	-2.01972890e-03	4.20773954e-03
1.04115109e-02	-1.87530323e-02	5.15111596e-03
3.16629911e-02	-2.55591885e-02	1.85261031e-02
3.87400218e-02	-2.29818372e-03	1.44033913e-02
7.45360055e-03	-2.92092700e-02	1.85185293e-02
1.06124442e-02	-3.33349908e-02	9.68299679e-03
2.61139711e-02	-1.03431780e-02	2.45295149e-03
4.22846952e-03	-3.60857727e-02	1.21297285e-02
2.30790804e-02	-2.82600327e-02	1.80769249e-02
8.15377536e-03	-3.47070253e-02	2.65953308e-03
3.49130539e-02	1.18735947e-02	1.64919280e-02
1.41510605e-02	-1.30225856e-02	1.73114475e-02
3.92303610e-02	4.56285666e-03	1.39354877e-02
3.54057551e-02	-8.78289820e-03	1.72782740e-02
2.22893310e-02	-1.71690258e-02	2.25633606e-03
2.94115239e-02	2.10897918e-03	1.24991892e-02
2.90445172e-03	-3.05270272e-02	1.42477840e-02
2.05485566e-02	-2.91050753e-03	9.97192051e-03
2.58710049e-02	-3.24204945e-03	5.05103103e-03
2.60323524e-02	1.37912728e-02	1.87415982e-02
3.51372302e-02	-1.24985761e-02	1.37792975e-02
3.15761469e-02	-9.49080584e-03	1.49248799e-02
3.86039033e-02	5.68793437e-03	1.81351234e-02
-5.11017709e-03	-3.42244163e-02	1.35907581e-02
3.30193657e-02	1.42033086e-02	1.35930218e-02
3.27871671e-02	-7.34473764e-03	8.22302853e-03
3.23734832e-02	-7.19012769e-03	1.35029973e-02
3.84613880e-02	-6.14111055e-03	5.93342161e-03
1.55415299e-02	-2.30641423e-02	1.54904901e-02
3.17327341e-02	-3.69337207e-03	1.19004596e-02
1.89729278e-02	3.47699686e-03	1.48243459e-02
1.45733939e-02	-3.58723477e-03	1.51820102e-03
2.33229556e-02	6.82072469e-03	1.10957410e-02
7.68487761e-03	-1.40547881e-02	1.37474258e-02
2.30787051e-02	-1.30888181e-02	1.56827979e-02
1.31445917e-02	-2.09500878e-02	2.15142659e-03
[...]
POINT_DATA 469
SCALARS Radius double 1
LOOKUP_TABLE default
2.00000000e-03
2.00000000e-03
2.00000000e-03
2.00000000e-03
2.00000000e-03
2.00000000e-03
2.00000000e-03
2.00000000e-03
2.00000000e-03
2.00000000e-03
2.00000000e-03
2.00000000e-03
2.00000000e-03
2.00000000e-03
2.00000000e-03
2.00000000e-03
2.00000000e-03
2.00000000e-03
2.00000000e-03
2.00000000e-03
2.00000000e-03
2.00000000e-03
2.00000000e-03
2.00000000e-03
2.00000000e-03
2.00000000e-03
2.00000000e-03
2.00000000e-03
2.00000000e-03
2.00000000e-03
2.00000000e-03
2.00000000e-03
2.00000000e-03
2.00000000e-03
2.00000000e-03
2.00000000e-03
2.00000000e-03
2.00000000e-03
2.00000000e-03
2.00000000e-03
2.00000000e-03
2.00000000e-03
2.00000000e-03
2.00000000e-03
2.00000000e-03
2.00000000e-03
2.00000000e-03
2.00000000e-03
2.00000000e-03
2.00000000e-03
2.00000000e-03
2.00000000e-03
2.00000000e-03
2.00000000e-03
2.00000000e-03
2.00000000e-03
2.00000000e-03
2.00000000e-03
2.00000000e-03
2.00000000e-03
2.00000000e-03
2.00000000e-03
2.00000000e-03
2.00000000e-03
2.00000000e-03
2.00000000e-03
2.00000000e-03
2.00000000e-03
2.00000000e-03
2.00000000e-03
2.00000000e-03
2.00000000e-03
2.00000000e-03
2.00000000e-03
2.00000000e-03
2.00000000e-03
2.00000000e-03
2.00000000e-03
2.00000000e-03
2.00000000e-03
2.00000000e-03
2.00000000e-03
2.00000000e-03
2.00000000e-03
2.00000000e-03
2.00000000e-03
2.00000000e-03
2.00000000e-03
2.00000000e-03
2.00000000e-03
2.00000000e-03
2.00000000e-03
2.00000000e-03
2.00000000e-03
2.00000000e-03
2.00000000e-03
2.00000000e-03
2.00000000e-03
2.00000000e-03
2.00000000e-03
2.00000000e-03
2.00000000e-03
2.00000000e-03
2.00000000e-03
2.00000000e-03
2.00000000e-03
2.00000000e-03
2.00000000e-03
2.00000000e-03
2.00000000e-03
2.00000000e-03
2.00000000e-03
2.00000000e-03
2.00000000e-03
2.00000000e-03
2.00000000e-03
2.00000000e-03
2.00000000e-03
2.00000000e-03
2.00000000e-03
2.00000000e-03
2.00000000e-03
2.00000000e-03
2.00000000e-03
2.00000000e-03
2.00000000e-03
2.00000000e-03
2.00000000e-03
2.00000000e-03
2.00000000e-03
2.00000000e-03
2.00000000e-03
2.00000000e-03
2.00000000e-03
2.00000000e-03
2.00000000e-03
2.00000000e-03
2.00000000e-03
2.00000000e-03
2.00000000e-03
2.00000000e-03
2.00000000e-03
2.00000000e-03
2.00000000e-03
2.00000000e-03
2.00000000e-03
2.00000000e-03
2.00000000e-03
2.00000000e-03
2.00000000e-03
2.00000000e-03
2.00000000e-03
2.00000000e-03
2.00000000e-03
2.00000000e-03
2.00000000e-03
2.00000000e-03
2.00000000e-03
2.00000000e-03
2.00000000e-03
2.00000000e-03
2.00000000e-03
2.00000000e-03
2.00000000e-03
2.00000000e-03
2.00000000e-03
2.00000000e-03
2.00000000e-03
2.00000000e-03
2.00000000e-03
2.00000000e-03
2.00000000e-03
2.00000000e-03
2.00000000e-03
2.00000000e-03
2.00000000e-03
2.00000000e-03
2.00000000e-03
2.00000000e-03
2.00000000e-03
2.00000000e-03
2.00000000e-03
2.00000000e-03
2.00000000e-03
2.00000000e-03
2.00000000e-03
2.00000000e-03
2.00000000e-03
2.00000000e-03
2.00000000e-03
2.00000000e-03
2.00000000e-03
2.00000000e-03
2.00000000e-03
2.00000000e-03
2.00000000e-03
2.00000000e-03
2.00000000e-03
2.00000000e-03
2.00000000e-03
2.00000000e-03
2.00000000e-03
2.00000000e-03
2.00000000e-03
2.00000000e-03
2.00000000e-03
2.00000000e-03
2.00000000e-03
2.00000000e-03
2.00000000e-03
2.00000000e-03
2.00000000e-03
2.00000000e-03
2.00000000e-03
2.00000000e-03
2.00000000e-03
2.00000000e-03
2.00000000e-03
2.00000000e-03
2.00000000e-03
2.00000000e-03
2.00000000e-03
2.00000000e-03
2.00000000e-03
2.00000000e-03
2.00000000e-03
2.00000000e-03
2.00000000e-03
2.00000000e-03
2.00000000e-03
2.00000000e-03
2.00000000e-03
2.00000000e-03
2.00000000e-03
2.00000000e-03
2.00000000e-03
2.00000000e-03
2.00000000e-03
2.00000000e-03
2.00000000e-03
2.00000000e-03
2.00000000e-03
2.00000000e-03
2.00000000e-03
2.00000000e-03
2.00000000e-03
2.00000000e-03
2.00000000e-03
2.00000000e-03
2.00000000e-03
2.00000000e-03
2.00000000e-03
2.00000000e-03
2.00000000e-03
2.00000000e-03
2.00000000e-03
2.00000000e-03
2.00000000e-03
2.00000000e-03
2.00000000e-03
2.00000000e-03
2.00000000e-03
2.00000000e-03
2.00000000e-03
2.00000000e-03
2.00000000e-03
2.00000000e-03
2.00000000e-03
2.00000000e-03
2.00000000e-03
2.00000000e-03
2.00000000e-03
2.00000000e-03
2.00000000e-03
2.00000000e-03
2.00000000e-03
2.00000000e-03
2.00000000e-03
2.00000000e-03
2.00000000e-03
2.00000000e-03
2.00000000e-03
2.00000000e-03
2.00000000e-03
2.00000000e-03
2.00000000e-03
2.00000000e-03
2.00000000e-03
2.00000000e-03
2.00000000e-03
2.00000000e-03
2.00000000e-03
2.00000000e-03
2.00000000e-03
2.00000000e-03
2.00000000e-03
2.00000000e-03
2.00000000e-03
2.00000000e-03
2.00000000e-03
2.00000000e-03
2.00000000e-03
2.00000000e-03
2.00000000e-03
2.00000000e-03
2.00000000e-03
2.00000000e-03
2.00000000e-03
2.00000000e-03
2.00000000e-03
2.00000000e-03
2.00000000e-03
2.00000000e-03
2.00000000e-03
2.00000000e-03
2.00000000e-03
2.00000000e-03
2.00000000e-03
2.00000000e-03
2.00000000e-03
2.00000000e-03
2.00000000e-03
2.00000000e-03
2.00000000e-03
2.00000000e-03
2.00000000e-03
2.00000000e-03
2.00000000e-03
2.00000000e-03
2.00000000e-03
2.00000000e-03
2.00000000e-03
2.00000000e-03
2.00000000e-03
2.00000000e-03
2.00000000e-03
2.00000000e-03
2.00000000e-03
2.00000000e-03
2.00000000e-03
2.00000000e-03
2.00000000e-03
2.00000000e-03
2.00000000e-03
2.00000000e-03
2.00000000e-03
2.00000000e-03
2.00000000e-03
2.00000000e-03
2.00000000e-03
2.00000000e-03
2.00000000e-03
2.00000000e-03
2.00000000e-03
2.00000000e-03
2.00000000e-03
2.00000000e-03
2.00000000e-03
2.00000000e-03
2.00000000e-03
2.00000000e-03
2.00000000e-03
2.00000000e-03
2.00000000e-03
2.00000000e-03
2.00000000e-03
2.00000000e-03
2.00000000e-03
2.00000000e-03
2.00000000e-03
2.00000000e-03
2.00000000e-03
2.00000000e-03
2.00000000e-03
2.00000000e-03
2.00000000e-03
2.00000000e-03
2.00000000e-03
2.00000000e-03
2.00000000e-03
2.00000000e-03
2.00000000e-03
2.00000000e-03
2.00000000e-03
2.00000000e-03
2.00000000e-03
2.00000000e-03
2.00000000e-03
2.00000000e-03
2.00000000e-03
2.00000000e-03
2.00000000e-03
2.00000000e-03
2.00000000e-03
2.00000000e-03
2.00000000e-03
2.00000000e-03
2.00000000e-03
2.00000000e-03
2.00000000e-03
2.00000000e-03
2.00000000e-03
2.00000000e-03
2.00000000e-03
2.00000000e-03
2.00000000e-03
2.00000000e-03
2.00000000e-03
2.00000000e-03
2.00000000e-03
2.00000000e-03
2.00000000e-03
2.00000000e-03
2.00000000e-03
2.00000000e-03
2.00000000e-03
2.00000000e-03
2.00000000e-03
2.00000000e-03
2.00000000e-03
2.00000000e-03
2.00000000e-03
2.00000000e-03
2.00000000e-03
2.00000000e-03
2.00000000e-03
2.00000000e-03
2.00000000e-03
2.00000000e-03
2.00000000e-03
2.00000000e-03
2.00000000e-03
2.00000000e-03
2.00000000e-03
2.00000000e-03
2.00000000e-03
2.00000000e-03
2.00000000e-03
2.00000000e-03
2.00000000e-03
2.00000000e-03
2.00000000e-03
2.00000000e-03
2.00000000e-03
2.00000000e-03
2.00000000e-03
2.00000000e-03
2.00000000e-03
2.00000000e-03
2.00000000e-03
2.00000000e-03
2.00000000e-03
2.00000000e-03
2.00000000e-03
2.00000000e-03
2.00000000e-03
2.00000000e-03
2.00000000e-03
2.00000000e-03
2.00000000e-03
2.00000000e-03
2.00000000e-03
2.00000000e-03
2.00000000e-03
2.00000000e-03
2.00000000e-03
2.00000000e-03
2.00000000e-03
2.00000000e-03
