# vtk DataFile Version 2.0
Particle data
ASCII
DATASET POLYDATA
POINTS 469 double
3.81396631e-02	9.55570581e-03	1.50902562e-02
2.57367518e-02	5.57918976e-03	1.27656596e-02
3.51136785e-02	-1.84021153e-02	1.46151170e-02
7.77708922e-03	-2.51262745e-02	1.14585581e-02
2.30536015e-02	4.14837839e-03	4.00912521e-03
3.32613964e-02	-5.26060512e-04	2.22426083e-03
3.81013988e-02	-4.19443555e-03	1.67498480e-02
1.10111676e-02	-2.66151346e-02	1.72817800e-02
2.93286493e-02	-2.47303372e-02	1.68259206e-02
-2.38891600e-03	-4.14916969e-02	1.50731765e-02
3.31302709e-02	7.18450732e-03	7.60397954e-03
2.97243589e-02	1.83571399e-03	1.71144155e-02
1.63940610e-02	-3.54383163e-02	7.93552766e-03
2.12331147e-02	-2.56350854e-03	6.33000335e-03
2.93934263e-02	1.40094377e-02	1.17487498e-02
-1.61056380e-03	-3.37511277e-02	1.15048545e-02
2.07505883e-02	-6.86528160e-03	9.12687040e-03
3.22971780e-02	-1.92717093e-03	1.98477291e-03
2.07288087e-02	-1.25336387e-02	1.51957055e-02
3.67770368e-02	2.46306741e-04	5.22097246e-03
3.09522099e-02	1.15092484e-02	1.85833153e-03
3.10511247e-02	-1.85482462e-02	1.80474121e-02
-7.36424059e-03	-2.76235238e-02	1.64143683e-03
3.49056941e-02	-1.32978263e-02	5.50321970e-03
3.40836232e-02	-8.37195108e-03	5.24483188e-03
-8.40785160e-03	-4.08851346e-02	1.43335079e-02
2.97434203e-02	1.63099301e-02	1.57185837e-02
3.44295421e-02	-1.00154020e-02	1.78292075e-02
-1.46445366e-03	-3.02397006e-02	2.91070571e-03
1.51864827e-02	-3.04406498e-02	1.79085848e-02
2.86749045e-02	3.40547677e-03	9.00213012e-03
2.88346073e-02	-2.63307943e-02	9.20959114e-03
2.83584171e-02	-4.03223329e-03	8.04593083e-03
2.64000051e-02	-1.30805624e-02	1.47428536e-02
1.29109278e-02	-3.49470318e-02	8.96771777e-03
2.75060275e-02	-8.69588583e-03	1.44615697e-02
4.09133161e-02	5.28438637e-03	1.00018997e-02
1.46190741e-02	1.44545274e-03	7.66649315e-03
3.21390929e-02	-1.48584179e-03	1.39770215e-02
3.16414946e-02	5.90978931e-03	4.93978882e-03
5.80472357e-03	-1.58100320e-02	1.35479275e-02
3.18793431e-02	-1.38314181e-02	1.60097676e-02
8.85572103e-03	-3.21189597e-02	1.65454093e-03
3.54868463e-02	1.09414126e-02	1.73602174e-02
2.31908499e-02	-1.72225471e-02	1.37032568e-02
3.20595400e-02	1.32529493e-02	1.17782742e-02
2.24045732e-02	-8.26633641e-04	1.57114696e-02
2.37919971e-02	9.98064398e-03	1.55824137e-02
2.05198581e-02	-7.12157023e-03	1.39925758e-02
3.83831814e-02	9.82619423e-03	1.73333022e-02
6.21567871e-03	-2.71003287e-02	2.00829349e-03
1.61920644e-02	-9.62057724e-03	1.46367843e-02
2.05226524e-02	6.53797952e-03	1.33806964e-02
1.40556955e-02	-2.21930644e-02	2.06817334e-03
9.27030793e-03	-3.06753827e-02	5.43803170e-03
-7.37331414e-03	-2.98091505e-02	1.76563245e-02
1.75123457e-03	-3.55299534e-02	5.76695827e-03
1.92761676e-02	6.62845092e-03	1.87892408e-02
1.92949614e-02	-2.60282335e-02	1.42262207e-02
1.60025110e-02	-2.94249675e-02	1.46644162e-02
2.08396397e-02	-2.88472860e-02	1.16960060e-02
2.72822083e-02	-1.38292461e-02	1.21816026e-02
1.73143752e-02	-1.48652244e-02	1.79024600e-02
-5.68314402e-03	-3.26671449e-02	1.20531233e-02
3.07631006e-02	-1.18538016e-02	3.85283569e-03
2.79856233e-02	1.31187817e-02	7.27124485e-03
-9.92010880e-03	-4.09873187e-02	4.83380880e-03
3.03370932e-02	-5.64635748e-03	1.63589606e-02
1.01116985e-02	-3.21243478e-02	6.57861728e-03
2.12955704e-02	-2.80386857e-02	2.34915581e-03
3.32112824e-03	-2.09408229e-02	1.15449722e-02
2.76417980e-02	-2.45127471e-02	6.04903576e-03
3.98797144e-02	1.04348317e-02	1.71579091e-02
3.66473785e-02	5.68463718e-03	1.42447939e-02
3.32255266e-02	-1.92863275e-02	3.55975674e-03
4.01284465e-03	-1.78688800e-02	1.67829626e-02
1.80185906e-02	-3.04864662e-02	5.89260902e-03
3.93576077e-02	-2.31781598e-03	4.15635056e-03
1.72908954e-02	-3.66591217e-02	1.86141948e-02
-5.07539160e-04	-3.03210137e-02	1.46617699e-02
1.41733475e-02	2.54809556e-03	1.06640319e-02
1.86273060e-02	-4.03478178e-03	1.04092198e-02
1.96788024e-02	-2.13902521e-02	7.32399116e-03
2.46980745e-02	-1.49834545e-02	1.78666415e-02
2.29663653e-02	-2.78006564e-02	3.85874998e-03
3.46520494e-02	1.02017010e-02	1.84562349e-03
1.98026493e-02	3.44984200e-03	1.77072316e-02
-1.83994023e-02	-3.20334502e-02	6.78776105e-03
2.86396592e-02	-1.52183017e-02	6.11307391e-03
1.31970889e-02	-2.60616048e-02	6.04581808e-03
3.33979990e-02	1.82943185e-02	1.36602238e-02
3.40638526e-02	1.46403315e-02	4.53848556e-03
3.38623462e-02	-2.09018058e-02	9.61094696e-03
3.43602467e-02	1.96349403e-02	4.36950438e-03
3.03372502e-02	-6.43444540e-03	1.09506788e-02
2.64249065e-02	-2.89376371e-02	1.76712563e-02
-5.61848585e-03	-2.99788702e-02	7.75814063e-03
6.20255476e-03	-3.61844241e-02	1.42308012e-02
3.09480952e-02	-1.34657155e-02	1.01475183e-02
3.10483472e-02	-1.55501608e-03	1.06374777e-02
1.07042568e-02	-3.28799921e-02	1.19360594e-02
1.63743441e-02	-1.54419461e-02	1.92325697e-02
-3.25126117e-03	-2.72092278e-02	1.29545583e-02
2.60836877e-02	-2.26450880e-02	1.49748132e-02
1.60153937e-02	-3.38247123e-02	1.56890477e-02
3.81735923e-02	1.68862735e-02	1.30719203e-02
2.48404943e-02	-1.29197443e-02	8.29716023e-03
1.71582257e-02	-2.96049038e-02	1.05107305e-02
8.22803320e-03	-3.01626649e-02	1.86475225e-03
3.00273087e-02	1.00990396e-02	9.34665062e-03
2.22565069e-04	-3.82729960e-02	4.28387373e-03
2.49912938e-02	1.16682349e-02	1.82725261e-02
8.28148553e-03	-3.15634407e-03	1.60994346e-02
1.40851986e-02	-2.10830352e-02	7.26720826e-03
1.99904037e-02	-3.24017025e-02	1.83984690e-02
1.11818221e-02	-3.50243691e-02	1.69390620e-03
3.48670593e-02	1.59058983e-02	1.49647676e-02
-5.39046794e-03	-3.49797259e-02	3.04421660e-03
1.31079630e-02	-9.72599511e-03	3.56360754e-03
3.79602972e-02	-1.01866203e-02	2.13336864e-03
2.62581546e-02	1.48531974e-02	2.39870747e-03
2.79038636e-02	-1.84798619e-02	1.14901764e-02
3.73029939e-02	-3.19407104e-03	1.65081314e-02
1.75141930e-02	-3.14156149e-02	1.30476421e-03
3.37191065e-02	-2.11983158e-02	1.80930104e-02
3.64943386e-02	9.35515060e-03	1.42904726e-02
3.58966688e-02	-5.62012700e-03	4.98691840e-03
3.50829511e-02	-3.01982800e-03	1.28891133e-02
-6.83197112e-03	-3.16135105e-02	1.40375874e-02
8.05800099e-03	-4.92348989e-03	2.05789650e-03
-4.51029371e-03	-3.18096487e-02	2.17807192e-03
2.59462495e-02	-2.76224850e-02	9.68329241e-03
2.21363040e-02	9.03890434e-03	1.82079404e-02
3.60185975e-02	-9.22432172e-03	7.66302671e-03
2.68883359e-02	-2.99175369e-03	6.71171658e-03
1.32836191e-02	-3.94608468e-02	1.41985987e-02
2.60446560e-02	1.31845071e-03	7.33562893e-03
3.90831652e-02	-3.27267984e-03	3.71146896e-03
2.50206882e-02	-2.87044547e-02	1.25119112e-02
2.41098329e-02	-8.38204387e-03	1.83511612e-02
1.24249330e-02	-3.51619719e-02	1.86219864e-02
3.71300972e-02	7.50671675e-03	1.00742503e-02
2.05786335e-02	-3.92209035e-03	1.47172457e-02
3.00577355e-02	1.92398905e-02	4.93081318e-03
3.52827783e-02	4.35873697e-03	6.82589284e-03
3.67989764e-02	1.95587638e-03	2.15555877e-03
-9.73243555e-03	-3.18994571e-02	3.23236218e-03
3.02399453e-02	9.82053082e-04	2.00786137e-03
2.34316190e-02	-5.93242627e-03	1.04036394e-02
5.55363867e-03	-4.06558639e-02	1.89021287e-02
1.45829973e-02	-2.48266527e-03	1.77660542e-02
2.43460348e-02	-1.77316950e-02	8.62380854e-03
3.23571258e-02	-3.61449886e-03	9.77126411e-03
1.72679551e-02	-1.45209616e-03	1.40828993e-02
8.41593881e-03	-2.30612834e-02	1.92818126e-03
-1.05624662e-02	-3.52575977e-02	1.41603642e-02
3.51252306e-02	-6.41303726e-03	2.11878442e-03
9.23850454e-03	-1.77909629e-02	3.86511407e-03
1.97624497e-02	-3.55548102e-02	1.82550063e-02
2.72295209e-02	1.41708243e-03	4.28032748e-03
3.63459191e-02	-7.70181534e-03	9.42661660e-03
3.85490092e-02	-2.75823852e-04	2.73223291e-03
1.89725151e-02	-2.66364626e-02	7.45749914e-03
-6.04369630e-03	-2.05742347e-02	1.86113917e-02
2.06825005e-02	-1.70582827e-02	5.65874734e-03
2.90910685e-02	3.03229538e-03	1.37450453e-02
1.05749468e-02	-2.62905198e-02	8.27337197e-03
3.87270301e-02	-2.23536691e-03	9.93815502e-03
2.09656185e-04	-3.42825465e-02	1.73337732e-02
-5.87350581e-03	-3.52091877e-02	6.78942629e-03
3.48783105e-02	-1.28387127e-02	1.67888105e-02
4.24947039e-03	-4.06643114e-02	2.96025564e-03
1.36141119e-02	5.09632525e-04	1.83874300e-02
2.89620823e-02	7.79471267e-03	1.72280771e-02
3.96591073e-02	4.31200946e-03	1.75663455e-02
3.48156171e-02	-1.90329020e-02	8.84565969e-03
2.83087416e-02	-9.17571776e-03	1.43268976e-03
2.54194861e-02	-2.61959437e-02	9.40260479e-03
3.16723704e-02	-1.90925817e-02	1.52194858e-02
2.98903620e-02	-2.17460857e-02	5.37529249e-03
1.05998782e-04	-3.01535195e-02	6.78941472e-03
2.93701740e-02	-1.06436315e-02	6.94360124e-03
3.65467386e-02	1.80683052e-02	1.74132512e-02
4.45017617e-03	-1.01974640e-02	1.22291562e-02
2.92923302e-02	-9.10033320e-03	1.73147370e-02
3.44032687e-02	-8.14002872e-03	1.03453983e-02
1.52365562e-02	-1.11967489e-02	1.24855633e-03
3.41875371e-02	-1.08989357e-02	1.13156116e-02
3.40377849e-02	3.76658866e-03	1.78712623e-02
3.37958686e-02	-6.35236253e-03	2.32335228e-03
9.92519230e-03	-3.03487733e-02	9.72444268e-03
1.87797811e-02	-1.51396444e-02	1.81579000e-02
-7.71590851e-03	-2.63826787e-02	8.38989833e-03
3.51427495e-02	2.12942726e-02	1.72348672e-02
1.67321694e-02	2.10895299e-03	2.45831926e-03
3.89332863e-03	-2.93276605e-02	1.15903899e-02
2.83324918e-02	-1.81688535e-02	1.39295601e-02
2.39667290e-02	-1.52623676e-02	9.54483381e-03
1.04003247e-02	-1.87016600e-02	8.38561666e-03
1.64696820e-03	-3.78274561e-02	1.42443523e-02
2.53205046e-02	1.10182823e-02	1.45166118e-02
9.79394456e-03	-7.86231943e-03	1.26906614e-02
-2.28965482e-03	-2.50242032e-02	1.85820025e-02
3.06036315e-02	-1.77718944e-02	1.33943616e-02
6.14505327e-03	-3.76219365e-02	1.80540743e-02
5.45433007e-03	-1.49234550e-02	4.85586003e-03
-6.22654092e-03	-2.49829340e-02	1.80196770e-02
2.59518866e-02	9.93535371e-03	3.73479745e-03
2.76596643e-02	2.14306173e-04	1.46629783e-02
1.00642352e-02	-1.60108411e-02	1.58549606e-02
1.31405041e-02	-3.46353317e-02	1.49835087e-02
1.19555038e-02	-2.71628368e-02	2.22855138e-03
8.29863195e-03	-4.15842437e-02	1.59233205e-02
2.53412022e-02	-2.13455556e-02	1.70163537e-02
2.09464675e-02	-1.18591130e-02	1.83007055e-02
2.77407915e-02	-4.77351210e-04	2.76418044e-03
[...]
POINT_DATA 469
SCALARS Radius double 1
LOOKUP_TABLE default
2.00000000e-03
2.00000000e-03
2.00000000e-03
2.00000000e-03
2.00000000e-03
2.00000000e-03
2.00000000e-03
2.00000000e-03
2.00000000e-03
2.00000000e-03
2.00000000e-03
2.00000000e-03
2.00000000e-03
2.00000000e-03
2.00000000e-03
2.00000000e-03
2.00000000e-03
2.00000000e-03
2.00000000e-03
2.00000000e-03
2.00000000e-03
2.00000000e-03
2.00000000e-03
2.00000000e-03
2.00000000e-03
2.00000000e-03
2.00000000e-03
2.00000000e-03
2.00000000e-03
2.00000000e-03
2.00000000e-03
2.00000000e-03
2.00000000e-03
2.00000000e-03
2.00000000e-03
2.00000000e-03
2.00000000e-03
2.00000000e-03
2.00000000e-03
2.00000000e-03
2.00000000e-03
2.00000000e-03
2.00000000e-03
2.00000000e-03
2.00000000e-03
2.00000000e-03
2.00000000e-03
2.00000000e-03
2.00000000e-03
2.00000000e-03
2.00000000e-03
2.00000000e-03
2.00000000e-03
2.00000000e-03
2.00000000e-03
2.00000000e-03
2.00000000e-03
2.00000000e-03
2.00000000e-03
2.00000000e-03
2.00000000e-03
2.00000000e-03
2.00000000e-03
2.00000000e-03
2.00000000e-03
2.00000000e-03
2.00000000e-03
2.00000000e-03
2.00000000e-03
2.00000000e-03
2.00000000e-03
2.00000000e-03
2.00000000e-03
2.00000000e-03
2.00000000e-03
2.00000000e-03
2.00000000e-03
2.00000000e-03
2.00000000e-03
2.00000000e-03
2.00000000e-03
2.00000000e-03
2.00000000e-03
2.00000000e-03
2.00000000e-03
2.00000000e-03
2.00000000e-03
2.00000000e-03
2.00000000e-03
2.00000000e-03
2.00000000e-03
2.00000000e-03
2.00000000e-03
2.00000000e-03
2.00000000e-03
2.00000000e-03
2.00000000e-03
2.00000000e-03
2.00000000e-03
2.00000000e-03
2.00000000e-03
2.00000000e-03
2.00000000e-03
2.00000000e-03
2.00000000e-03
2.00000000e-03
2.00000000e-03
2.00000000e-03
2.00000000e-03
2.00000000e-03
2.00000000e-03
2.00000000e-03
2.00000000e-03
2.00000000e-03
2.00000000e-03
2.00000000e-03
2.00000000e-03
2.00000000e-03
2.00000000e-03
2.00000000e-03
2.00000000e-03
2.00000000e-03
2.00000000e-03
2.00000000e-03
2.00000000e-03
2.00000000e-03
2.00000000e-03
2.00000000e-03
2.00000000e-03
2.00000000e-03
2.00000000e-03
2.00000000e-03
2.00000000e-03
2.00000000e-03
2.00000000e-03
2.00000000e-03
2.00000000e-03
2.00000000e-03
2.00000000e-03
2.00000000e-03
2.00000000e-03
2.00000000e-03
2.00000000e-03
2.00000000e-03
2.00000000e-03
2.00000000e-03
2.00000000e-03
2.00000000e-03
2.00000000e-03
2.00000000e-03
2.00000000e-03
2.00000000e-03
2.00000000e-03
2.00000000e-03
2.00000000e-03
2.00000000e-03
2.00000000e-03
2.00000000e-03
2.00000000e-03
2.00000000e-03
2.00000000e-03
2.00000000e-03
2.00000000e-03
2.00000000e-03
2.00000000e-03
2.00000000e-03
2.00000000e-03
2.00000000e-03
2.00000000e-03
2.00000000e-03
2.00000000e-03
2.00000000e-03
2.00000000e-03
2.00000000e-03
2.00000000e-03
2.00000000e-03
2.00000000e-03
2.00000000e-03
2.00000000e-03
2.00000000e-03
2.00000000e-03
2.00000000e-03
2.00000000e-03
2.00000000e-03
2.00000000e-03
2.00000000e-03
2.00000000e-03
2.00000000e-03
2.00000000e-03
2.00000000e-03
2.00000000e-03
2.00000000e-03
2.00000000e-03
2.00000000e-03
2.00000000e-03
2.00000000e-03
2.00000000e-03
2.00000000e-03
2.00000000e-03
2.00000000e-03
2.00000000e-03
2.00000000e-03
2.00000000e-03
2.00000000e-03
2.00000000e-03
2.00000000e-03
2.00000000e-03
2.00000000e-03
2.00000000e-03
2.00000000e-03
2.00000000e-03
2.00000000e-03
2.00000000e-03
2.00000000e-03
2.00000000e-03
2.00000000e-03
2.00000000e-03
2.00000000e-03
2.00000000e-03
2.00000000e-03
2.00000000e-03
2.00000000e-03
2.00000000e-03
2.00000000e-03
2.00000000e-03
2.00000000e-03
2.00000000e-03
2.00000000e-03
2.00000000e-03
2.00000000e-03
2.00000000e-03
2.00000000e-03
2.00000000e-03
2.00000000e-03
2.00000000e-03
2.00000000e-03
2.00000000e-03
2.00000000e-03
2.00000000e-03
2.00000000e-03
2.00000000e-03
2.00000000e-03
2.00000000e-03
2.00000000e-03
2.00000000e-03
2.00000000e-03
2.00000000e-03
2.00000000e-03
2.00000000e-03
2.00000000e-03
2.00000000e-03
2.00000000e-03
2.00000000e-03
2.00000000e-03
2.00000000e-03
2.00000000e-03
2.00000000e-03
2.00000000e-03
2.00000000e-03
2.00000000e-03
2.00000000e-03
2.00000000e-03
2.00000000e-03
2.00000000e-03
2.00000000e-03
2.00000000e-03
2.00000000e-03
2.00000000e-03
2.00000000e-03
2.00000000e-03
2.00000000e-03
2.00000000e-03
2.00000000e-03
2.00000000e-03
2.00000000e-03
2.00000000e-03
2.00000000e-03
2.00000000e-03
2.00000000e-03
2.00000000e-03
2.00000000e-03
2.00000000e-03
2.00000000e-03
2.00000000e-03
2.00000000e-03
2.00000000e-03
2.00000000e-03
2.00000000e-03
2.00000000e-03
2.00000000e-03
2.00000000e-03
2.00000000e-03
2.00000000e-03
2.00000000e-03
2.00000000e-03
2.00000000e-03
2.00000000e-03
2.00000000e-03
2.00000000e-03
2.00000000e-03
2.00000000e-03
2.00000000e-03
2.00000000e-03
2.00000000e-03
2.00000000e-03
2.00000000e-03
2.00000000e-03
2.00000000e-03
2.00000000e-03
2.00000000e-03
2.00000000e-03
2.00000000e-03
2.00000000e-03
2.00000000e-03
2.00000000e-03
2.00000000e-03
2.00000000e-03
2.00000000e-03
2.00000000e-03
2.00000000e-03
2.00000000e-03
2.00000000e-03
2.00000000e-03
2.00000000e-03
2.00000000e-03
2.00000000e-03
2.00000000e-03
2.00000000e-03
2.00000000e-03
2.00000000e-03
2.00000000e-03
2.00000000e-03
2.00000000e-03
2.00000000e-03
2.00000000e-03
2.00000000e-03
2.00000000e-03
2.00000000e-03
2.00000000e-03
2.00000000e-03
2.00000000e-03
2.00000000e-03
2.00000000e-03
2.00000000e-03
2.00000000e-03
2.00000000e-03
2.00000000e-03
2.00000000e-03
2.00000000e-03
2.00000000e-03
2.00000000e-03
2.00000000e-03
2.00000000e-03
2.00000000e-03
2.00000000e-03
2.00000000e-03
2.00000000e-03
2.00000000e-03
2.00000000e-03
2.00000000e-03
2.00000000e-03
2.00000000e-03
2.00000000e-03
2.00000000e-03
2.00000000e-03
2.00000000e-03
2.00000000e-03
2.00000000e-03
2.00000000e-03
2.00000000e-03
2.00000000e-03
2.00000000e-03
2.00000000e-03
2.00000000e-03
2.00000000e-03
2.00000000e-03
2.00000000e-03
2.00000000e-03
2.00000000e-03
2.00000000e-03
2.00000000e-03
2.00000000e-03
2.00000000e-03
2.00000000e-03
2.00000000e-03
2.00000000e-03
2.00000000e-03
2.00000000e-03
2.00000000e-03
2.00000000e-03
2.00000000e-03
2.00000000e-03
2.00000000e-03
2.00000000e-03
2.00000000e-03
2.00000000e-03
2.00000000e-03
2.00000000e-03
2.00000000e-03
2.00000000e-03
2.00000000e-03
2.00000000e-03
2.00000000e-03
2.00000000e-03
2.00000000e-03
2.00000000e-03
2.00000000e-03
2.00000000e-03
2.00000000e-03
2.00000000e-03
2.00000000e-03
2.00000000e-03
2.00000000e-03
2.00000000e-03
2.00000000e-03
2.00000000e-03
2.00000000e-03
2.00000000e-03
2.00000000e-03
2.00000000e-03
2.00000000e-03
2.00000000e-03
2.00000000e-03
2.00000000e-03
2.00000000e-03
2.00000000e-03
2.00000000e-03
2.00000000e-03
2.00000000e-03
2.00000000e-03
2.00000000e-03
2.00000000e-03
2.00000000e-03
2.00000000e-03
2.00000000e-03
2.00000000e-03
2.00000000e-03
2.00000000e-03
2.00000000e-03
2.00000000e-03
2.00000000e-03
2.00000000e-03
2.00000000e-03
2.00000000e-03
2.00000000e-03
2.00000000e-03
2.00000000e-03
2.00000000e-03
2.00000000e-03
2.00000000e-03
2.00000000e-03
2.00000000e-03
2.00000000e-03
2.00000000e-03
2.00000000e-03
2.00000000e-03
2.00000000e-03
2.00000000e-03
2.00000000e-03
2.00000000e-03
2.00000000e-03
2.00000000e-03
2.00000000e-03
2.00000000e-03
2.00000000e-03
2.00000000e-03
2.00000000e-03
2.00000000e-03
2.00000000e-03
