# vtk DataFile Version 2.0
Particle data
ASCII
DATASET POLYDATA
POINTS 469 double
3.47162491e-02	-6.68369995e-03	9.27293540e-03
2.92067096e-02	-1.54825731e-02	1.36436594e-02
2.06316064e-02	-2.35156345e-02	5.67093193e-03
1.80981340e-02	1.28108363e-02	1.34182707e-02
2.45054781e-02	-1.43290501e-02	2.78615812e-03
3.98243829e-02	-4.30461427e-03	2.71628112e-03
3.34597865e-02	-7.04473082e-03	1.16020473e-02
1.95281280e-02	2.33242075e-03	1.78271722e-02
2.65921501e-02	-2.56840194e-02	1.81319787e-02
-8.98800915e-03	-3.69712583e-02	1.76777787e-02
4.00294981e-02	3.24572916e-03	1.88118877e-02
3.00257515e-02	-1.19543851e-02	1.79848241e-02
1.80903779e-02	-3.66030332e-02	1.19003261e-02
2.01255076e-02	-2.09205547e-02	3.05847217e-03
3.95164822e-02	-5.57417326e-04	1.46830844e-02
2.12753420e-03	-2.11703290e-02	1.25340316e-02
2.00145847e-02	8.49552448e-03	1.51330650e-02
3.02130538e-02	-1.97842478e-02	2.02009306e-03
1.98323712e-02	6.17587003e-04	1.18888395e-02
3.74207616e-02	4.80162116e-03	1.19501516e-02
3.49696530e-02	8.68664456e-03	2.02281327e-03
2.29579825e-02	-2.94880319e-02	1.81045347e-02
-1.77992422e-02	-3.38513468e-02	4.51509235e-03
1.65027613e-02	-1.49529295e-02	2.01400039e-03
1.58920862e-02	-2.28528050e-02	2.03984615e-03
-3.26982028e-03	-3.60054126e-02	8.91258917e-03
3.54736966e-02	1.64931421e-02	1.41507648e-02
2.80177096e-02	-2.35042072e-02	1.36637256e-02
2.01429860e-02	1.52190537e-02	1.01033038e-02
2.16505634e-02	-5.85817879e-03	1.43623403e-02
2.61586456e-02	-2.20258812e-02	1.00657647e-02
3.53081494e-02	-1.80301198e-02	2.06633553e-03
3.10540739e-02	-1.75138654e-02	5.60162795e-03
1.27400212e-02	-2.76203093e-02	1.82076493e-02
4.12798113e-03	-3.95785229e-02	1.14026114e-02
2.18275894e-02	-2.60389172e-02	1.19173168e-02
3.91808698e-02	-3.63185160e-03	6.79852881e-03
2.72394421e-02	1.71212755e-02	1.01232022e-02
3.07073969e-02	-1.01392883e-02	1.10708162e-02
1.93859442e-02	-1.74870474e-02	2.09904284e-03
2.97709147e-02	1.42539705e-02	8.45019862e-03
3.54465683e-02	-1.81029561e-02	1.50070423e-02
1.44546990e-03	-4.01335352e-02	2.12778471e-03
2.73292447e-02	-5.15010163e-03	1.39351812e-02
3.79521446e-03	-2.79946399e-02	1.72292003e-02
3.44157790e-02	7.99134786e-03	1.23945077e-02
2.87365196e-02	2.14608730e-03	1.49031612e-02
2.28768428e-02	-3.24108248e-03	7.20074005e-03
1.72325305e-02	-1.15379667e-02	1.44863636e-02
2.90495971e-02	-4.62394372e-03	1.79667183e-02
1.99899088e-02	-4.09919663e-03	1.90193180e-03
1.69064263e-02	-1.06091561e-02	8.14352528e-03
2.02035429e-02	1.22158904e-02	1.66402101e-02
1.97943539e-02	-3.91393470e-03	7.38969566e-03
-5.90110098e-03	-3.16648841e-02	1.21627165e-02
2.56189345e-02	1.85702604e-02	1.30150290e-02
-1.01858338e-02	-3.86748881e-02	8.92779598e-03
3.07074298e-02	4.70379697e-03	1.57186328e-02
5.16720012e-03	-3.49882228e-02	1.46310180e-02
4.03493037e-04	-3.12957128e-02	1.61035565e-02
8.22851554e-03	-3.59768468e-02	1.78900748e-02
1.15057671e-02	-2.83349184e-02	9.93196656e-03
2.12274352e-02	-1.14373009e-02	1.77120924e-02
1.07204998e-02	-6.36418039e-03	1.22176264e-02
2.15263084e-02	-2.72649597e-02	3.78707121e-03
3.84164355e-02	8.81779312e-03	6.17649862e-03
-3.12075563e-03	-3.99762451e-02	3.93253678e-03
2.83597172e-02	-1.48978520e-02	1.81896136e-02
3.85215402e-04	-3.55849964e-02	6.18747675e-03
1.42079403e-02	-3.88840452e-02	9.76202004e-03
3.24252084e-02	1.44848292e-02	6.21316979e-03
2.49393589e-02	-2.98714363e-02	2.36512908e-03
3.54581218e-02	-1.03642200e-03	1.83792407e-02
3.38961179e-02	1.38125150e-02	9.32111241e-03
3.76119130e-02	-1.32422544e-02	6.18900768e-03
3.66615073e-02	1.64172209e-02	1.77838153e-02
2.57000346e-02	8.25094385e-03	8.72486164e-03
2.89420327e-02	-7.02087913e-03	9.38094064e-03
1.37629742e-02	-3.76291926e-02	1.79240111e-02
1.72329643e-03	-2.33093218e-02	1.56200942e-02
3.14483403e-02	6.51335248e-03	5.81182408e-03
1.34337169e-02	-2.92366632e-02	6.47543612e-03
9.79924709e-03	-2.85207108e-02	1.96306520e-03
7.11716671e-03	-2.81502327e-02	1.80141536e-02
8.29730729e-03	-3.21394741e-02	2.36081899e-03
3.89844093e-02	7.80518973e-03	1.85942574e-03
3.42791707e-02	-1.42512920e-02	1.44798419e-02
-4.07294433e-03	-2.66723599e-02	9.84385863e-03
1.30202584e-02	-3.52496364e-02	6.34530977e-03
5.96490968e-03	-2.14314610e-02	5.67186936e-03
3.40157591e-02	1.11574397e-02	5.73148011e-03
3.07333687e-02	-3.71231251e-03	1.63810680e-03
2.59618146e-02	-2.80866906e-02	5.94310250e-03
3.57107706e-02	1.80514463e-02	1.10504608e-02
2.33176090e-02	-2.12241732e-02	6.87060663e-03
2.82741758e-02	-2.78482040e-02	8.26966748e-03
4.93478973e-03	-1.32599072e-02	6.46220405e-03
-2.32500426e-03	-3.50143547e-02	1.24935950e-02
1.70049810e-02	-2.13509971e-02	1.79951435e-02
1.99629068e-02	-1.95560180e-02	6.48862734e-03
1.62807851e-03	-2.78039623e-02	8.19156336e-03
2.33653874e-05	-3.09029793e-02	1.26959751e-02
1.86654601e-02	3.45573465e-03	1.42960976e-02
1.82481436e-02	-3.59061968e-02	1.73352850e-02
2.71718720e-03	-3.18638379e-02	7.84236104e-03
2.25124704e-02	-2.34740781e-03	1.90913706e-03
1.42699471e-02	-1.14185740e-02	4.31592100e-03
1.18101485e-02	-1.46440212e-02	7.57437181e-03
-4.94034679e-03	-3.61707045e-02	1.80025691e-03
2.64612382e-02	-1.14131858e-02	5.08798774e-03
-2.66441735e-03	-2.77888018e-02	2.56716023e-03
3.35535503e-02	1.22633250e-02	1.79983712e-02
3.08744606e-02	5.09267492e-03	1.19639522e-02
1.43892452e-02	-1.55189518e-03	2.05361289e-03
1.24649878e-02	-3.18205240e-02	1.44667112e-02
1.52498992e-03	-3.36566360e-02	2.03468476e-03
3.10269528e-02	1.95163109e-02	1.04085995e-02
-8.91100907e-03	-3.57805798e-02	6.33092501e-03
2.59430622e-02	-1.82895354e-02	1.07568980e-02
3.60232391e-02	-1.77189624e-02	7.06837314e-03
3.25755901e-02	4.73875970e-04	1.93508598e-03
1.59140175e-02	-1.72430068e-02	1.59388076e-02
3.95404407e-02	6.85937582e-03	1.78258184e-02
1.10624700e-02	-3.90882806e-02	5.45639036e-03
2.12219722e-02	-3.50506397e-02	1.81948981e-02
3.67799104e-02	5.19692664e-03	4.66470084e-03
3.90789906e-02	-6.60443142e-03	5.58809522e-03
3.03374734e-02	-1.19802129e-02	7.38026976e-03
2.31446301e-02	9.28583880e-03	1.06673561e-02
2.22226525e-02	4.80557538e-03	1.98587748e-03
2.62991940e-02	1.15990058e-02	5.90774744e-03
2.33209523e-02	-3.38096194e-02	4.62353867e-03
2.97208087e-02	8.20663864e-03	1.79800804e-02
3.20553194e-02	-1.71549607e-02	1.28945232e-02
1.82550891e-02	-1.54022081e-02	7.93106347e-03
8.74399136e-03	-3.83528529e-02	1.30979371e-02
2.65591944e-02	-2.09265000e-02	4.16332266e-03
3.56220814e-02	-6.14974685e-03	1.80564465e-03
1.39089498e-02	-1.94363619e-02	1.25627934e-02
2.66211742e-02	1.50230898e-02	1.84710929e-02
8.55354115e-03	-3.23323612e-02	1.54675778e-02
3.52853984e-02	3.55175257e-03	2.53254783e-03
3.48677885e-02	3.71517998e-03	1.50761449e-02
2.93579216e-02	1.71522951e-02	6.35764774e-03
3.29635683e-02	-2.94338712e-03	8.29101004e-03
3.97495093e-02	3.50805434e-03	2.34517902e-03
-7.56318427e-03	-2.69736493e-02	5.25252557e-03
3.97326545e-02	1.54025227e-04	2.06077953e-03
1.36373901e-02	-1.99114679e-02	8.48293415e-03
5.86381723e-03	-2.38071400e-02	1.60075891e-02
3.24769749e-02	2.83170790e-04	1.11842256e-02
8.16662091e-03	-2.17648028e-02	9.40698772e-03
3.90536048e-02	-9.51036418e-03	1.15010843e-02
3.65241540e-02	1.11017227e-02	1.45473786e-02
2.29164011e-02	-1.73848182e-03	1.10051751e-02
1.66390634e-02	-1.96514998e-03	1.06004272e-02
3.80465702e-02	-1.07802172e-02	5.20090945e-03
2.08616137e-02	-1.52702187e-02	4.99641772e-03
1.54873735e-02	-3.66738773e-02	1.43308354e-02
2.75872563e-02	-2.99095315e-03	2.09928026e-03
2.74391959e-02	-2.49139304e-02	6.99455170e-03
3.88046922e-02	-7.69409708e-03	1.83266123e-03
1.06913675e-02	-3.54372924e-02	9.32048594e-03
2.20529459e-02	1.66904889e-02	1.80196010e-02
1.07237517e-02	-2.50290181e-02	1.94242635e-03
2.71701600e-02	-1.20300148e-02	1.25297312e-02
2.09617625e-02	-6.91354139e-03	1.08073414e-02
3.61413158e-02	2.17040456e-03	5.13135475e-03
1.24044908e-02	5.08724619e-03	1.78258343e-02
-3.45205153e-03	-2.81890245e-02	6.18686064e-03
3.94581322e-02	-5.84696148e-03	9.58919418e-03
5.35625542e-04	-3.63175442e-02	1.05632213e-02
2.47547149e-02	-3.68416384e-04	1.14816776e-02
3.12191873e-02	-1.18899512e-02	1.46007663e-02
2.96839009e-02	-4.04511791e-03	5.86515227e-03
3.45151580e-02	-1.08390893e-02	1.23972529e-02
3.23429023e-02	-2.27746015e-02	1.82491498e-03
1.77878503e-02	-3.20720775e-02	1.82020872e-02
3.79431331e-02	-1.21971817e-02	1.80885571e-02
9.51998381e-03	-2.54537944e-02	6.36233501e-03
2.12897197e-02	1.08269577e-02	1.21263508e-02
1.05455446e-02	-3.19963915e-02	4.74388213e-03
2.72965900e-02	-7.69549538e-03	1.84154630e-02
8.81974752e-03	-9.53552068e-03	8.06940072e-03
1.69245968e-02	-2.62878571e-02	1.19834641e-02
3.78366061e-02	-1.22147751e-02	9.39867854e-03
3.61392678e-02	5.06436620e-04	1.34590477e-02
3.26687469e-02	-2.30066515e-02	1.35498679e-02
2.66130833e-02	-4.16336506e-04	1.80707412e-02
3.72408867e-02	-1.50852766e-02	1.83551877e-03
6.01570454e-03	-1.75913570e-02	1.41952093e-02
1.20523808e-02	-2.64011747e-02	1.38032034e-02
-1.48814548e-02	-3.30534999e-02	1.23008010e-02
1.62567491e-02	2.20962632e-03	8.10879259e-03
1.68420475e-02	-2.11325070e-02	5.52126398e-03
2.21943641e-02	5.85538009e-03	1.79511012e-02
1.70235143e-02	-3.00170924e-02	1.03422533e-02
1.47503361e-02	-1.05270913e-02	1.06380289e-02
2.48223677e-02	-6.76090375e-03	8.51631155e-03
-4.41622732e-03	-3.25958592e-02	1.79257889e-02
3.69659115e-02	1.18484500e-02	1.10892502e-02
3.49022366e-02	8.24142158e-03	8.11347594e-03
1.00634327e-03	-1.72458713e-02	1.21125297e-02
2.19237379e-02	-3.47040946e-02	1.19882305e-02
-4.89791415e-04	-2.57778747e-02	1.49632067e-02
2.89795067e-02	2.10714735e-03	9.05480632e-03
2.30772358e-02	7.62654584e-04	1.45819741e-02
3.43673152e-02	1.86794404e-02	1.78064527e-02
2.47092520e-02	-2.17928139e-02	1.46352285e-02
2.65370082e-02	1.17796077e-02	1.42759037e-02
3.87280251e-03	-3.97727308e-02	1.53994454e-02
6.98300021e-03	-1.84352251e-02	2.09673012e-03
1.67640468e-03	-3.62230678e-02	1.44448878e-02
5.31064777e-03	-3.02272474e-02	1.41673260e-02
2.86067128e-02	-1.76852321e-02	1.48345297e-02
1.92792498e-02	-2.46484418e-02	2.32912125e-03
[...]
POINT_DATA 469
SCALARS Radius double 1
LOOKUP_TABLE default
2.00000000e-03
2.00000000e-03
2.00000000e-03
2.00000000e-03
2.00000000e-03
2.00000000e-03
2.00000000e-03
2.00000000e-03
2.00000000e-03
2.00000000e-03
2.00000000e-03
2.00000000e-03
2.00000000e-03
2.00000000e-03
2.00000000e-03
2.00000000e-03
2.00000000e-03
2.00000000e-03
2.00000000e-03
2.00000000e-03
2.00000000e-03
2.00000000e-03
2.00000000e-03
2.00000000e-03
2.00000000e-03
2.00000000e-03
2.00000000e-03
2.00000000e-03
2.00000000e-03
2.00000000e-03
2.00000000e-03
2.00000000e-03
2.00000000e-03
2.00000000e-03
2.00000000e-03
2.00000000e-03
2.00000000e-03
2.00000000e-03
2.00000000e-03
2.00000000e-03
2.00000000e-03
2.00000000e-03
2.00000000e-03
2.00000000e-03
2.00000000e-03
2.00000000e-03
2.00000000e-03
2.00000000e-03
2.00000000e-03
2.00000000e-03
2.00000000e-03
2.00000000e-03
2.00000000e-03
2.00000000e-03
2.00000000e-03
2.00000000e-03
2.00000000e-03
2.00000000e-03
2.00000000e-03
2.00000000e-03
2.00000000e-03
2.00000000e-03
2.00000000e-03
2.00000000e-03
2.00000000e-03
2.00000000e-03
2.00000000e-03
2.00000000e-03
2.00000000e-03
2.00000000e-03
2.00000000e-03
2.00000000e-03
2.00000000e-03
2.00000000e-03
2.00000000e-03
2.00000000e-03
2.00000000e-03
2.00000000e-03
2.00000000e-03
2.00000000e-03
2.00000000e-03
2.00000000e-03
2.00000000e-03
2.00000000e-03
2.00000000e-03
2.00000000e-03
2.00000000e-03
2.00000000e-03
2.00000000e-03
2.00000000e-03
2.00000000e-03
2.00000000e-03
2.00000000e-03
2.00000000e-03
2.00000000e-03
2.00000000e-03
2.00000000e-03
2.00000000e-03
2.00000000e-03
2.00000000e-03
2.00000000e-03
2.00000000e-03
2.00000000e-03
2.00000000e-03
2.00000000e-03
2.00000000e-03
2.00000000e-03
2.00000000e-03
2.00000000e-03
2.00000000e-03
2.00000000e-03
2.00000000e-03
2.00000000e-03
2.00000000e-03
2.00000000e-03
2.00000000e-03
2.00000000e-03
2.00000000e-03
2.00000000e-03
2.00000000e-03
2.00000000e-03
2.00000000e-03
2.00000000e-03
2.00000000e-03
2.00000000e-03
2.00000000e-03
2.00000000e-03
2.00000000e-03
2.00000000e-03
2.00000000e-03
2.00000000e-03
2.00000000e-03
2.00000000e-03
2.00000000e-03
2.00000000e-03
2.00000000e-03
2.00000000e-03
2.00000000e-03
2.00000000e-03
2.00000000e-03
2.00000000e-03
2.00000000e-03
2.00000000e-03
2.00000000e-03
2.00000000e-03
2.00000000e-03
2.00000000e-03
2.00000000e-03
2.00000000e-03
2.00000000e-03
2.00000000e-03
2.00000000e-03
2.00000000e-03
2.00000000e-03
2.00000000e-03
2.00000000e-03
2.00000000e-03
2.00000000e-03
2.00000000e-03
2.00000000e-03
2.00000000e-03
2.00000000e-03
2.00000000e-03
2.00000000e-03
2.00000000e-03
2.00000000e-03
2.00000000e-03
2.00000000e-03
2.00000000e-03
2.00000000e-03
2.00000000e-03
2.00000000e-03
2.00000000e-03
2.00000000e-03
2.00000000e-03
2.00000000e-03
2.00000000e-03
2.00000000e-03
2.00000000e-03
2.00000000e-03
2.00000000e-03
2.00000000e-03
2.00000000e-03
2.00000000e-03
2.00000000e-03
2.00000000e-03
2.00000000e-03
2.00000000e-03
2.00000000e-03
2.00000000e-03
2.00000000e-03
2.00000000e-03
2.00000000e-03
2.00000000e-03
2.00000000e-03
2.00000000e-03
2.00000000e-03
2.00000000e-03
2.00000000e-03
2.00000000e-03
2.00000000e-03
2.00000000e-03
2.00000000e-03
2.00000000e-03
2.00000000e-03
2.00000000e-03
2.00000000e-03
2.00000000e-03
2.00000000e-03
2.00000000e-03
2.00000000e-03
2.00000000e-03
2.00000000e-03
2.00000000e-03
2.00000000e-03
2.00000000e-03
2.00000000e-03
2.00000000e-03
2.00000000e-03
2.00000000e-03
2.00000000e-03
2.00000000e-03
2.00000000e-03
2.00000000e-03
2.00000000e-03
2.00000000e-03
2.00000000e-03
2.00000000e-03
2.00000000e-03
2.00000000e-03
2.00000000e-03
2.00000000e-03
2.00000000e-03
2.00000000e-03
2.00000000e-03
2.00000000e-03
2.00000000e-03
2.00000000e-03
2.00000000e-03
2.00000000e-03
2.00000000e-03
2.00000000e-03
2.00000000e-03
2.00000000e-03
2.00000000e-03
2.00000000e-03
2.00000000e-03
2.00000000e-03
2.00000000e-03
2.00000000e-03
2.00000000e-03
2.00000000e-03
2.00000000e-03
2.00000000e-03
2.00000000e-03
2.00000000e-03
2.00000000e-03
2.00000000e-03
2.00000000e-03
2.00000000e-03
2.00000000e-03
2.00000000e-03
2.00000000e-03
2.00000000e-03
2.00000000e-03
2.00000000e-03
2.00000000e-03
2.00000000e-03
2.00000000e-03
2.00000000e-03
2.00000000e-03
2.00000000e-03
2.00000000e-03
2.00000000e-03
2.00000000e-03
2.00000000e-03
2.00000000e-03
2.00000000e-03
2.00000000e-03
2.00000000e-03
2.00000000e-03
2.00000000e-03
2.00000000e-03
2.00000000e-03
2.00000000e-03
2.00000000e-03
2.00000000e-03
2.00000000e-03
2.00000000e-03
2.00000000e-03
2.00000000e-03
2.00000000e-03
2.00000000e-03
2.00000000e-03
2.00000000e-03
2.00000000e-03
2.00000000e-03
2.00000000e-03
2.00000000e-03
2.00000000e-03
2.00000000e-03
2.00000000e-03
2.00000000e-03
2.00000000e-03
2.00000000e-03
2.00000000e-03
2.00000000e-03
2.00000000e-03
2.00000000e-03
2.00000000e-03
2.00000000e-03
2.00000000e-03
2.00000000e-03
2.00000000e-03
2.00000000e-03
2.00000000e-03
2.00000000e-03
2.00000000e-03
2.00000000e-03
2.00000000e-03
2.00000000e-03
2.00000000e-03
2.00000000e-03
2.00000000e-03
2.00000000e-03
2.00000000e-03
2.00000000e-03
2.00000000e-03
2.00000000e-03
2.00000000e-03
2.00000000e-03
2.00000000e-03
2.00000000e-03
2.00000000e-03
2.00000000e-03
2.00000000e-03
2.00000000e-03
2.00000000e-03
2.00000000e-03
2.00000000e-03
2.00000000e-03
2.00000000e-03
2.00000000e-03
2.00000000e-03
2.00000000e-03
2.00000000e-03
2.00000000e-03
2.00000000e-03
2.00000000e-03
2.00000000e-03
2.00000000e-03
2.00000000e-03
2.00000000e-03
2.00000000e-03
2.00000000e-03
2.00000000e-03
2.00000000e-03
2.00000000e-03
2.00000000e-03
2.00000000e-03
2.00000000e-03
2.00000000e-03
2.00000000e-03
2.00000000e-03
2.00000000e-03
2.00000000e-03
2.00000000e-03
2.00000000e-03
2.00000000e-03
2.00000000e-03
2.00000000e-03
2.00000000e-03
2.00000000e-03
2.00000000e-03
2.00000000e-03
2.00000000e-03
2.00000000e-03
2.00000000e-03
2.00000000e-03
2.00000000e-03
2.00000000e-03
2.00000000e-03
2.00000000e-03
2.00000000e-03
2.00000000e-03
2.00000000e-03
2.00000000e-03
2.00000000e-03
2.00000000e-03
2.00000000e-03
2.00000000e-03
2.00000000e-03
2.00000000e-03
2.00000000e-03
2.00000000e-03
2.00000000e-03
2.00000000e-03
2.00000000e-03
2.00000000e-03
2.00000000e-03
2.00000000e-03
2.00000000e-03
2.00000000e-03
2.00000000e-03
2.00000000e-03
2.00000000e-03
2.00000000e-03
2.00000000e-03
2.00000000e-03
2.00000000e-03
2.00000000e-03
2.00000000e-03
2.00000000e-03
2.00000000e-03
2.00000000e-03
2.00000000e-03
2.00000000e-03
2.00000000e-03
2.00000000e-03
2.00000000e-03
2.00000000e-03
2.00000000e-03
2.00000000e-03
2.00000000e-03
2.00000000e-03
2.00000000e-03
2.00000000e-03
2.00000000e-03
2.00000000e-03
2.00000000e-03
2.00000000e-03
2.00000000e-03
2.00000000e-03
2.00000000e-03
2.00000000e-03
2.00000000e-03
2.00000000e-03
2.00000000e-03
2.00000000e-03
2.00000000e-03
2.00000000e-03
2.00000000e-03
2.00000000e-03
2.00000000e-03
2.00000000e-03
2.00000000e-03
2.00000000e-03
2.00000000e-03
2.00000000e-03
2.00000000e-03
2.00000000e-03
2.00000000e-03
2.00000000e-03
2.00000000e-03
2.00000000e-03
2.00000000e-03
2.00000000e-03
2.00000000e-03
2.00000000e-03
2.00000000e-03
2.00000000e-03
2.00000000e-03
2.00000000e-03
2.00000000e-03
2.00000000e-03
2.00000000e-03
2.00000000e-03
2.00000000e-03
2.00000000e-03
