# vtk DataFile Version 2.0
Particle data
ASCII
DATASET POLYDATA
POINTS 469 double
3.75938558e-02	-1.82881648e-03	1.40509601e-02
3.02045965e-02	-4.42221097e-04	1.32257664e-02
2.73597743e-02	-2.88620342e-02	1.45861081e-02
1.12544994e-02	-9.42482974e-03	9.40958931e-03
2.89407688e-02	4.88459278e-03	2.93568589e-03
3.47497817e-02	-1.13201350e-02	2.25989335e-03
3.65654279e-02	-1.62253618e-02	1.82883489e-02
5.24185928e-03	-2.65634639e-02	1.73193608e-02
1.89531434e-02	-3.44587495e-02	1.66667505e-02
-7.81177456e-03	-3.21774186e-02	1.48477388e-02
3.70976063e-02	4.92475583e-04	6.79869150e-03
3.14696525e-02	-5.19433564e-03	1.76786961e-02
2.81739379e-03	-3.99095250e-02	8.10671954e-03
2.73347200e-02	-4.34092964e-03	5.29831010e-03
3.50509959e-02	4.64492363e-03	1.38099595e-02
2.83926467e-03	-1.58054134e-02	1.05468457e-02
1.85904815e-02	-1.30359318e-02	8.03681165e-03
3.01416702e-02	-1.25083624e-02	2.31202437e-03
1.73420287e-02	-1.52028516e-02	1.52979677e-02
3.84249211e-02	-7.38705120e-03	4.66574660e-03
3.58981150e-02	5.61887035e-03	1.92308543e-03
2.18949397e-02	-2.85295422e-02	1.80536974e-02
1.29003733e-02	9.93141539e-03	2.33156166e-03
2.75808988e-02	-2.49231606e-02	5.41018646e-03
2.93116019e-02	-2.02516716e-02	5.31984192e-03
-1.70968421e-02	-3.70040084e-02	1.45010987e-02
3.67790547e-02	9.35752000e-03	1.51633756e-02
2.89859453e-02	-2.09481275e-02	1.74188796e-02
1.50544709e-02	1.89202736e-03	1.01218890e-02
3.92123252e-03	-3.43115619e-02	1.88273163e-02
3.07780297e-02	-4.67116203e-03	8.65687711e-03
1.79393226e-02	-3.48516123e-02	9.10568832e-03
2.90279717e-02	-1.06413564e-02	8.13993816e-03
1.91752212e-02	-2.45345515e-02	1.51596636e-02
2.07310385e-03	-3.69031858e-02	8.49714990e-03
2.26662441e-02	-1.77510223e-02	1.52183570e-02
3.94135818e-02	-5.49831206e-03	9.85082189e-03
2.98251044e-02	1.63057064e-02	1.01280193e-02
3.28512805e-02	-9.57618620e-03	1.39347189e-02
3.22214383e-02	-5.04548127e-03	4.67392098e-03
2.35684100e-02	7.62986867e-03	1.34704749e-02
2.77930641e-02	-2.16005566e-02	1.59065052e-02
1.03961285e-03	-3.20803800e-02	3.64702772e-03
3.77109719e-02	-4.98946141e-04	1.74088529e-02
1.51550863e-02	-2.42419406e-02	1.39413743e-02
3.58841501e-02	6.37820663e-03	1.09876395e-02
2.44955329e-02	-4.77585714e-03	1.45658946e-02
3.15302415e-02	8.79963280e-03	1.41440509e-02
1.77833051e-02	-1.35610580e-02	1.37432328e-02
3.85116566e-02	-1.71719539e-03	1.76366831e-02
9.03356833e-03	-1.42424747e-02	2.17710920e-03
2.23474672e-02	-1.43107656e-03	1.15659000e-02
3.32367418e-02	1.31221064e-02	1.26722618e-02
1.12811733e-02	-1.82424178e-02	1.82211207e-03
3.18828799e-03	-2.62777118e-02	6.39759448e-03
1.21693417e-04	-1.64474975e-02	1.68699933e-02
-1.24782009e-03	-2.69218149e-02	6.67173871e-03
3.19804047e-02	8.39669437e-03	1.81246198e-02
9.00366038e-03	-3.15560795e-02	1.45675042e-02
5.30953686e-03	-3.29048913e-02	1.40223547e-02
1.00464589e-02	-3.58211812e-02	1.17317431e-02
2.07852596e-02	-2.41758449e-02	1.21417237e-02
1.27584187e-02	-1.68058254e-02	1.77592773e-02
7.93794927e-03	-1.69495815e-03	1.05677944e-02
2.49759271e-02	-2.25790824e-02	3.68822721e-03
3.34906913e-02	6.73562974e-03	6.17798556e-03
-1.07635963e-02	-3.42544638e-02	7.18029961e-03
2.97859244e-02	-1.25835429e-02	1.60486579e-02
1.13706491e-03	-3.23079235e-02	7.11319201e-03
7.53193823e-03	-3.76746249e-02	2.97757907e-03
2.36757200e-02	8.69374143e-03	9.05337213e-03
1.71439837e-02	-3.41051215e-02	5.68132812e-03
3.93142821e-02	-2.70375407e-03	1.75739370e-02
3.73687187e-02	-5.80214196e-03	1.37341732e-02
2.69052816e-02	-2.86252954e-02	2.30763332e-03
1.96205687e-02	8.40443363e-03	1.81889489e-02
7.63190882e-03	-3.49180100e-02	5.81852724e-03
3.85000588e-02	-1.31739553e-02	5.90133074e-03
3.26728105e-03	-4.04897109e-02	1.86294016e-02
4.33474688e-03	-1.10086170e-02	1.66418611e-02
3.18026178e-02	9.68659602e-03	9.64353532e-03
2.09654480e-02	-9.73591956e-03	1.03237793e-02
1.37475599e-02	-2.52956391e-02	7.20735227e-03
1.68972844e-02	-2.54374551e-02	1.79729934e-02
1.37870638e-02	-3.26999057e-02	3.28348492e-03
3.97482532e-02	4.86538770e-03	1.84026514e-03
2.64484466e-02	6.98680355e-04	1.71718019e-02
1.35338987e-02	2.26058865e-03	1.04009803e-02
2.16731617e-02	-2.44654887e-02	6.52655408e-03
6.83933050e-03	-2.58361363e-02	6.26670178e-03
3.86189192e-02	8.06108301e-03	1.16501097e-02
3.55713758e-02	1.57132013e-03	3.76396681e-03
2.49883688e-02	-3.10173693e-02	9.27539516e-03
3.63233149e-02	1.15204278e-02	2.11764757e-03
2.71574561e-02	-1.48742256e-02	1.09862166e-02
1.47948252e-02	-3.70893066e-02	1.76064619e-02
1.98782345e-02	1.64636738e-02	1.08532763e-02
-4.28225618e-03	-3.54805826e-02	1.29528822e-02
2.21512410e-02	-2.38290109e-02	1.01950365e-02
3.18245204e-02	-1.07773410e-02	1.03428377e-02
1.45331967e-03	-3.38938056e-02	1.13708644e-02
1.26012311e-02	-1.59143936e-02	1.86296328e-02
2.31311896e-02	1.31409286e-02	1.73059615e-02
1.65461205e-02	-3.09685148e-02	1.57356390e-02
4.79539503e-03	-3.69347299e-02	1.62772373e-02
3.97145456e-02	6.55719319e-03	1.20928482e-02
2.10903263e-02	-1.89253609e-02	8.07510766e-03
7.54678959e-03	-3.22499014e-02	9.68433735e-03
2.82514598e-03	-2.51445984e-02	2.47256563e-03
3.22460278e-02	-2.37188552e-03	9.40889075e-03
-2.61830873e-03	-2.54085612e-02	6.72118500e-03
3.56045465e-02	1.07505800e-02	1.85274478e-02
2.74962950e-02	1.63853881e-02	1.83055709e-02
1.07357847e-02	-1.73131127e-02	6.77507255e-03
7.65023535e-03	-3.91286822e-02	1.81345890e-02
-7.80781607e-04	-3.73440169e-02	1.71795048e-03
3.73324315e-02	5.67184887e-03	1.43661566e-02
-4.13285658e-03	-1.83433794e-02	6.00149924e-03
2.68321359e-02	-2.44437517e-04	8.08400959e-03
3.46975726e-02	-2.01740481e-02	2.19343611e-03
3.32647526e-02	1.11886622e-02	2.58135553e-03
1.84529245e-02	-2.73919993e-02	1.17261238e-02
3.69341891e-02	-1.13126848e-02	1.68636164e-02
3.74263711e-03	-3.84129576e-02	1.09306473e-03
2.25399677e-02	-3.31755956e-02	1.79155050e-02
4.05580312e-02	2.57415584e-03	1.36580223e-02
3.63570338e-02	-1.32261945e-02	5.37129496e-03
3.60278744e-02	-1.03863945e-02	1.24210544e-02
4.63026096e-04	-1.56361811e-02	1.29144551e-02
2.60975665e-02	1.29739591e-02	2.26808731e-03
8.89402211e-03	-3.95129214e-03	1.89242037e-03
1.24174883e-02	-3.72230957e-02	9.97436982e-03
3.27055999e-02	3.69165301e-03	1.89338434e-02
3.43905161e-02	-1.78794169e-02	7.58810663e-03
2.36647843e-02	-1.24115290e-02	6.41213167e-03
4.47186312e-03	-3.91097968e-02	1.15109417e-02
2.81739748e-02	-6.15927404e-03	7.98479257e-03
3.76890679e-02	-1.46919062e-02	2.97911715e-03
1.34162841e-02	-3.64226459e-02	1.18639519e-02
2.10754204e-02	-1.35356324e-02	1.80204639e-02
1.26457029e-03	-3.67003589e-02	1.82359243e-02
3.93314728e-02	6.80748355e-04	9.54970711e-03
2.08789512e-02	-3.54949421e-03	1.41102834e-02
3.42412029e-02	1.32365970e-02	1.82911550e-03
3.49387558e-02	-9.27827957e-03	6.37914818e-03
3.91092686e-02	-4.19832622e-03	2.47792356e-03
1.22860628e-02	5.31022051e-03	2.40692147e-03
3.33037273e-02	-4.16896795e-03	1.91533251e-03
2.24506760e-02	-1.36949270e-02	1.04302768e-02
-5.46784287e-03	-3.90010092e-02	1.77500255e-02
2.97000585e-02	1.35266238e-02	1.77310262e-02
1.71781662e-02	-2.40043382e-02	9.02569598e-03
3.42398340e-02	-9.99731674e-03	1.00193765e-02
3.04308083e-02	8.37964392e-03	1.33401169e-02
1.08177923e-02	-1.56839619e-02	4.77937830e-03
-8.52233492e-03	-2.33226834e-02	1.41972164e-02
3.45089671e-02	-1.45714144e-02	1.45814466e-03
2.28341224e-02	1.30528711e-03	5.44041678e-03
7.46649015e-03	-4.08885705e-02	1.83215426e-02
3.09012995e-02	-4.88483756e-03	3.60964981e-03
3.11147520e-02	-2.15022627e-02	9.19350906e-03
3.94397617e-02	-8.67069393e-03	2.57500135e-03
1.17908820e-02	-2.90238758e-02	7.41093808e-03
2.73667334e-02	1.79852687e-02	1.92601148e-02
1.43067997e-02	-2.24535791e-02	5.62715295e-03
3.10806043e-02	-5.66500296e-03	1.26439219e-02
6.94329767e-03	-2.44062159e-02	7.68829225e-03
3.70893372e-02	-1.48170063e-02	8.69633603e-03
7.37504476e-03	-3.18110505e-03	1.77501539e-02
6.81888150e-03	-2.26058416e-03	7.82078510e-03
3.42190443e-02	-2.05733642e-02	1.65716853e-02
-8.80894933e-03	-3.86307358e-02	3.23923649e-03
3.25952405e-02	1.87592396e-02	1.80303130e-02
3.17905272e-02	-2.04440950e-04	1.67403363e-02
3.80665971e-02	-8.86755777e-03	1.78843133e-02
2.79396556e-02	-2.84119724e-02	9.63723248e-03
2.31281047e-02	-1.98598556e-02	1.63758939e-03
1.40302466e-02	-3.53772389e-02	9.67744209e-03
2.50855392e-02	-2.70983718e-02	1.56893882e-02
2.05748794e-02	-3.15497458e-02	4.94864706e-03
1.68894671e-02	8.57150491e-03	4.72965825e-03
2.51317617e-02	-1.92691658e-02	6.14669047e-03
3.88007849e-02	5.90794494e-03	1.78965957e-02
3.02802039e-02	2.35675453e-02	1.42370499e-02
2.40710717e-02	-2.01921810e-02	1.83890787e-02
3.36314080e-02	-1.48903024e-02	1.02465971e-02
2.46773168e-02	8.03121627e-03	1.85570304e-03
2.86496141e-02	-2.09075961e-02	1.17427890e-02
3.56969120e-02	-4.66911611e-03	1.81344933e-02
3.07277296e-02	-1.63899694e-02	3.21400786e-03
5.71451836e-03	-2.32250307e-02	1.10277727e-02
1.44071719e-02	-1.91778373e-02	1.75588102e-02
2.28296676e-02	1.47646965e-02	1.52183298e-02
3.63208052e-02	1.49069481e-02	1.89580857e-02
2.70035208e-02	6.09222292e-03	3.02642990e-03
3.71908359e-03	-2.08454757e-02	1.19048480e-02
2.14575120e-02	-2.61775456e-02	1.37783407e-02
1.87294775e-02	-2.10072867e-02	9.96151258e-03
2.22495149e-02	-1.67920145e-03	7.64629413e-03
-5.20517414e-03	-3.20448320e-02	1.41530905e-02
3.44308802e-02	8.07418278e-03	1.41748447e-02
2.89476689e-02	1.32061320e-02	1.52794497e-02
1.72064393e-02	4.93250025e-03	1.82869348e-02
1.97223200e-02	-3.07620283e-02	1.36824304e-02
-2.29533865e-03	-3.07006025e-02	1.76974706e-02
2.63402570e-02	1.17551234e-02	6.51837935e-03
1.82917582e-02	1.23151797e-03	1.55199703e-02
3.02439626e-02	1.15201350e-02	5.40153711e-03
2.90354070e-02	-5.80232897e-03	1.51864101e-02
1.73309930e-02	-4.25312942e-03	1.36638089e-02
3.25775937e-03	-3.67349969e-02	1.50505905e-02
7.14797116e-03	-2.22988944e-02	1.85588063e-03
-2.30117169e-03	-4.07761968e-02	1.49246419e-02
1.58417724e-02	-2.95043222e-02	1.63175526e-02
2.05217075e-02	-1.01568894e-02	1.79584748e-02
2.31181738e-02	-1.33482863e-02	3.20927942e-03
[...]
POINT_DATA 469
SCALARS Radius double 1
LOOKUP_TABLE default
2.00000000e-03
2.00000000e-03
2.00000000e-03
2.00000000e-03
2.00000000e-03
2.00000000e-03
2.00000000e-03
2.00000000e-03
2.00000000e-03
2.00000000e-03
2.00000000e-03
2.00000000e-03
2.00000000e-03
2.00000000e-03
2.00000000e-03
2.00000000e-03
2.00000000e-03
2.00000000e-03
2.00000000e-03
2.00000000e-03
2.00000000e-03
2.00000000e-03
2.00000000e-03
2.00000000e-03
2.00000000e-03
2.00000000e-03
2.00000000e-03
2.00000000e-03
2.00000000e-03
2.00000000e-03
2.00000000e-03
2.00000000e-03
2.00000000e-03
2.00000000e-03
2.00000000e-03
2.00000000e-03
2.00000000e-03
2.00000000e-03
2.00000000e-03
2.00000000e-03
2.00000000e-03
2.00000000e-03
2.00000000e-03
2.00000000e-03
2.00000000e-03
2.00000000e-03
2.00000000e-03
2.00000000e-03
2.00000000e-03
2.00000000e-03
2.00000000e-03
2.00000000e-03
2.00000000e-03
2.00000000e-03
2.00000000e-03
2.00000000e-03
2.00000000e-03
2.00000000e-03
2.00000000e-03
2.00000000e-03
2.00000000e-03
2.00000000e-03
2.00000000e-03
2.00000000e-03
2.00000000e-03
2.00000000e-03
2.00000000e-03
2.00000000e-03
2.00000000e-03
2.00000000e-03
2.00000000e-03
2.00000000e-03
2.00000000e-03
2.00000000e-03
2.00000000e-03
2.00000000e-03
2.00000000e-03
2.00000000e-03
2.00000000e-03
2.00000000e-03
2.00000000e-03
2.00000000e-03
2.00000000e-03
2.00000000e-03
2.00000000e-03
2.00000000e-03
2.00000000e-03
2.00000000e-03
2.00000000e-03
2.00000000e-03
2.00000000e-03
2.00000000e-03
2.00000000e-03
2.00000000e-03
2.00000000e-03
2.00000000e-03
2.00000000e-03
2.00000000e-03
2.00000000e-03
2.00000000e-03
2.00000000e-03
2.00000000e-03
2.00000000e-03
2.00000000e-03
2.00000000e-03
2.00000000e-03
2.00000000e-03
2.00000000e-03
2.00000000e-03
2.00000000e-03
2.00000000e-03
2.00000000e-03
2.00000000e-03
2.00000000e-03
2.00000000e-03
2.00000000e-03
2.00000000e-03
2.00000000e-03
2.00000000e-03
2.00000000e-03
2.00000000e-03
2.00000000e-03
2.00000000e-03
2.00000000e-03
2.00000000e-03
2.00000000e-03
2.00000000e-03
2.00000000e-03
2.00000000e-03
2.00000000e-03
2.00000000e-03
2.00000000e-03
2.00000000e-03
2.00000000e-03
2.00000000e-03
2.00000000e-03
2.00000000e-03
2.00000000e-03
2.00000000e-03
2.00000000e-03
2.00000000e-03
2.00000000e-03
2.00000000e-03
2.00000000e-03
2.00000000e-03
2.00000000e-03
2.00000000e-03
2.00000000e-03
2.00000000e-03
2.00000000e-03
2.00000000e-03
2.00000000e-03
2.00000000e-03
2.00000000e-03
2.00000000e-03
2.00000000e-03
2.00000000e-03
2.00000000e-03
2.00000000e-03
2.00000000e-03
2.00000000e-03
2.00000000e-03
2.00000000e-03
2.00000000e-03
2.00000000e-03
2.00000000e-03
2.00000000e-03
2.00000000e-03
2.00000000e-03
2.00000000e-03
2.00000000e-03
2.00000000e-03
2.00000000e-03
2.00000000e-03
2.00000000e-03
2.00000000e-03
2.00000000e-03
2.00000000e-03
2.00000000e-03
2.00000000e-03
2.00000000e-03
2.00000000e-03
2.00000000e-03
2.00000000e-03
2.00000000e-03
2.00000000e-03
2.00000000e-03
2.00000000e-03
2.00000000e-03
2.00000000e-03
2.00000000e-03
2.00000000e-03
2.00000000e-03
2.00000000e-03
2.00000000e-03
2.00000000e-03
2.00000000e-03
2.00000000e-03
2.00000000e-03
2.00000000e-03
2.00000000e-03
2.00000000e-03
2.00000000e-03
2.00000000e-03
2.00000000e-03
2.00000000e-03
2.00000000e-03
2.00000000e-03
2.00000000e-03
2.00000000e-03
2.00000000e-03
2.00000000e-03
2.00000000e-03
2.00000000e-03
2.00000000e-03
2.00000000e-03
2.00000000e-03
2.00000000e-03
2.00000000e-03
2.00000000e-03
2.00000000e-03
2.00000000e-03
2.00000000e-03
2.00000000e-03
2.00000000e-03
2.00000000e-03
2.00000000e-03
2.00000000e-03
2.00000000e-03
2.00000000e-03
2.00000000e-03
2.00000000e-03
2.00000000e-03
2.00000000e-03
2.00000000e-03
2.00000000e-03
2.00000000e-03
2.00000000e-03
2.00000000e-03
2.00000000e-03
2.00000000e-03
2.00000000e-03
2.00000000e-03
2.00000000e-03
2.00000000e-03
2.00000000e-03
2.00000000e-03
2.00000000e-03
2.00000000e-03
2.00000000e-03
2.00000000e-03
2.00000000e-03
2.00000000e-03
2.00000000e-03
2.00000000e-03
2.00000000e-03
2.00000000e-03
2.00000000e-03
2.00000000e-03
2.00000000e-03
2.00000000e-03
2.00000000e-03
2.00000000e-03
2.00000000e-03
2.00000000e-03
2.00000000e-03
2.00000000e-03
2.00000000e-03
2.00000000e-03
2.00000000e-03
2.00000000e-03
2.00000000e-03
2.00000000e-03
2.00000000e-03
2.00000000e-03
2.00000000e-03
2.00000000e-03
2.00000000e-03
2.00000000e-03
2.00000000e-03
2.00000000e-03
2.00000000e-03
2.00000000e-03
2.00000000e-03
2.00000000e-03
2.00000000e-03
2.00000000e-03
2.00000000e-03
2.00000000e-03
2.00000000e-03
2.00000000e-03
2.00000000e-03
2.00000000e-03
2.00000000e-03
2.00000000e-03
2.00000000e-03
2.00000000e-03
2.00000000e-03
2.00000000e-03
2.00000000e-03
2.00000000e-03
2.00000000e-03
2.00000000e-03
2.00000000e-03
2.00000000e-03
2.00000000e-03
2.00000000e-03
2.00000000e-03
2.00000000e-03
2.00000000e-03
2.00000000e-03
2.00000000e-03
2.00000000e-03
2.00000000e-03
2.00000000e-03
2.00000000e-03
2.00000000e-03
2.00000000e-03
2.00000000e-03
2.00000000e-03
2.00000000e-03
2.00000000e-03
2.00000000e-03
2.00000000e-03
2.00000000e-03
2.00000000e-03
2.00000000e-03
2.00000000e-03
2.00000000e-03
2.00000000e-03
2.00000000e-03
2.00000000e-03
2.00000000e-03
2.00000000e-03
2.00000000e-03
2.00000000e-03
2.00000000e-03
2.00000000e-03
2.00000000e-03
2.00000000e-03
2.00000000e-03
2.00000000e-03
2.00000000e-03
2.00000000e-03
2.00000000e-03
2.00000000e-03
2.00000000e-03
2.00000000e-03
2.00000000e-03
2.00000000e-03
2.00000000e-03
2.00000000e-03
2.00000000e-03
2.00000000e-03
2.00000000e-03
2.00000000e-03
2.00000000e-03
2.00000000e-03
2.00000000e-03
2.00000000e-03
2.00000000e-03
2.00000000e-03
2.00000000e-03
2.00000000e-03
2.00000000e-03
2.00000000e-03
2.00000000e-03
2.00000000e-03
2.00000000e-03
2.00000000e-03
2.00000000e-03
2.00000000e-03
2.00000000e-03
2.00000000e-03
2.00000000e-03
2.00000000e-03
2.00000000e-03
2.00000000e-03
2.00000000e-03
2.00000000e-03
2.00000000e-03
2.00000000e-03
2.00000000e-03
2.00000000e-03
2.00000000e-03
2.00000000e-03
2.00000000e-03
2.00000000e-03
2.00000000e-03
2.00000000e-03
2.00000000e-03
2.00000000e-03
2.00000000e-03
2.00000000e-03
2.00000000e-03
2.00000000e-03
2.00000000e-03
2.00000000e-03
2.00000000e-03
2.00000000e-03
2.00000000e-03
2.00000000e-03
2.00000000e-03
2.00000000e-03
2.00000000e-03
2.00000000e-03
2.00000000e-03
2.00000000e-03
2.00000000e-03
2.00000000e-03
2.00000000e-03
2.00000000e-03
2.00000000e-03
2.00000000e-03
2.00000000e-03
2.00000000e-03
2.00000000e-03
2.00000000e-03
2.00000000e-03
2.00000000e-03
2.00000000e-03
2.00000000e-03
2.00000000e-03
2.00000000e-03
2.00000000e-03
2.00000000e-03
2.00000000e-03
2.00000000e-03
2.00000000e-03
2.00000000e-03
2.00000000e-03
2.00000000e-03
2.00000000e-03
2.00000000e-03
2.00000000e-03
2.00000000e-03
2.00000000e-03
2.00000000e-03
2.00000000e-03
2.00000000e-03
2.00000000e-03
2.00000000e-03
2.00000000e-03
2.00000000e-03
2.00000000e-03
2.00000000e-03
2.00000000e-03
2.00000000e-03
2.00000000e-03
2.00000000e-03
2.00000000e-03
2.00000000e-03
2.00000000e-03
2.00000000e-03
2.00000000e-03
2.00000000e-03
2.00000000e-03
2.00000000e-03
2.00000000e-03
2.00000000e-03
2.00000000e-03
2.00000000e-03
2.00000000e-03
2.00000000e-03
2.00000000e-03
2.00000000e-03
2.00000000e-03
2.00000000e-03
2.00000000e-03
