# vtk DataFile Version 2.0
Particle data
ASCII
DATASET POLYDATA
POINTS 469 double
3.34551738e-02	1.66984390e-02	1.44480392e-02
1.80392347e-02	3.89081637e-04	1.21401031e-02
3.68447286e-02	-1.06152823e-02	1.45880232e-02
1.37721731e-02	-2.45944097e-02	1.22911577e-02
8.24678856e-03	-1.37422757e-02	6.80922747e-03
3.16779604e-02	6.44809491e-03	1.96247344e-03
3.99520741e-02	5.63363141e-03	1.68612858e-02
1.69545732e-02	-2.38002893e-02	1.72023398e-02
3.43626077e-02	-2.01866130e-02	1.69203635e-02
7.25347663e-03	-4.07767921e-02	1.50498516e-02
2.96401619e-02	1.35148855e-02	5.40399328e-03
2.94242906e-02	1.08613843e-02	1.74582827e-02
2.44028425e-02	-3.11870145e-02	7.50186203e-03
1.33820278e-02	-1.45746632e-02	9.55592517e-03
1.87816861e-02	4.79571063e-03	1.18671966e-02
6.79155430e-03	-3.63590134e-02	1.11235064e-02
2.10513142e-02	-5.32223083e-03	1.13614539e-02
3.14162316e-02	3.69908699e-03	2.13699877e-03
2.27663627e-02	-6.95738903e-03	1.46301925e-02
3.43351746e-02	8.36635809e-03	4.77278057e-03
2.81585538e-02	1.89291832e-02	2.03731120e-03
3.51918808e-02	-9.93874340e-03	1.78527064e-02
-3.77219431e-03	-3.63124689e-02	1.73079770e-03
3.66581662e-02	-6.40491971e-03	5.47319808e-03
3.43298892e-02	1.76735232e-04	5.53316569e-03
7.85029045e-04	-4.15843963e-02	1.37630451e-02
1.58485585e-02	2.37468341e-03	1.59470905e-02
3.60531378e-02	-1.72512520e-03	1.79126019e-02
4.24493334e-03	-3.24153074e-02	2.86651708e-03
2.22388362e-02	-2.53032126e-02	1.75597257e-02
2.39910145e-02	5.39408461e-03	8.16683975e-03
3.24725651e-02	-1.90965705e-02	9.37644724e-03
2.55515068e-02	-1.29659341e-03	7.81245684e-03
2.92136272e-02	-6.64454539e-03	1.49774758e-02
2.32398185e-02	-2.87743111e-02	9.15759489e-03
2.86400374e-02	-3.70068345e-03	1.43832674e-02
3.73831684e-02	1.15912405e-02	9.25635069e-03
-1.12571955e-02	-2.82589520e-02	9.66801317e-03
3.06350121e-02	8.48459922e-03	1.46293840e-02
2.69499723e-02	6.98983761e-03	3.27184273e-03
-4.00101636e-03	-3.03490687e-02	1.46910920e-02
3.41248289e-02	-6.78716059e-03	1.63772889e-02
1.83134932e-02	-2.66026765e-02	1.51306753e-03
3.15289645e-02	1.85703152e-02	1.76518147e-02
2.62598180e-02	-1.21492122e-02	1.39349555e-02
2.61927265e-02	1.45810545e-02	1.18845231e-02
1.72725537e-02	-2.12328886e-03	1.64901873e-02
8.52828863e-03	-1.02129519e-02	1.36547088e-02
1.67438124e-02	-1.04710626e-02	1.45765624e-02
3.34088894e-02	2.11748769e-02	1.75449717e-02
1.11741291e-02	-2.71911686e-02	1.82382609e-03
1.54725846e-02	-1.38134262e-02	1.71088793e-02
-1.31714957e-03	-1.94040023e-02	1.45497618e-02
1.82798485e-02	-1.89249598e-02	2.32704988e-03
1.55556243e-02	-2.78959032e-02	5.55868682e-03
-2.17581682e-03	-3.94109950e-02	1.84761949e-02
1.00737787e-02	-3.45049072e-02	5.66695026e-03
5.09152882e-03	-1.20528825e-02	1.84857398e-02
2.50577976e-02	-1.98561900e-02	1.45559958e-02
2.45654802e-02	-2.27037190e-02	1.42365974e-02
2.85867348e-02	-2.12131391e-02	1.17051878e-02
2.95078044e-02	-7.74773892e-03	1.22844699e-02
1.88329387e-02	-1.40899702e-02	1.84378732e-02
2.22930342e-03	-3.34040271e-02	1.30250639e-02
3.20490381e-02	-5.15990700e-03	3.47528340e-03
2.29319888e-02	1.28745449e-02	5.67818431e-03
4.10174562e-04	-3.81959043e-02	5.95655336e-03
2.99488071e-02	2.26854436e-03	1.66220169e-02
1.86512192e-02	-2.87486501e-02	6.29946942e-03
2.87249562e-02	-2.05549788e-02	2.22897371e-03
-2.11233569e-03	-3.04109313e-02	1.26830748e-02
3.39053512e-02	-1.65119400e-02	6.11003388e-03
3.36777591e-02	1.64073562e-02	1.74485898e-02
3.53462329e-02	1.22679393e-02	1.46241468e-02
3.60622673e-02	-9.20274068e-03	2.37534735e-03
-1.89044228e-03	-3.02637873e-02	1.69212584e-02
2.37807295e-02	-2.71652274e-02	5.46677786e-03
3.85173710e-02	6.75363339e-03	4.78877270e-03
2.49618366e-02	-2.99011378e-02	1.80651945e-02
7.43031433e-03	-3.37935918e-02	1.48103892e-02
-4.03502806e-03	-2.11759750e-02	1.57972971e-02
1.00173299e-02	-1.68001094e-02	1.27273363e-02
2.44835430e-02	-1.48242771e-02	8.07802051e-03
2.75742730e-02	-8.89801814e-03	1.79145005e-02
3.01050868e-02	-1.97561929e-02	4.02038623e-03
3.00816482e-02	2.33178037e-02	1.60883290e-03
1.30719860e-02	-5.50077123e-03	1.71872440e-02
-1.41789348e-02	-3.69583083e-02	3.15995764e-03
3.28058728e-02	-5.14553306e-03	6.04788508e-03
1.87918576e-02	-2.18062955e-02	6.27337183e-03
2.64460897e-02	1.55311739e-02	1.37612850e-02
2.74820681e-02	1.51278515e-02	4.31510462e-03
3.64508600e-02	-1.43502529e-02	9.82431397e-03
2.71741587e-02	2.24717296e-02	6.35424165e-03
2.97627702e-02	-2.26606401e-04	1.12187694e-02
3.07746978e-02	-2.57395297e-02	1.71761331e-02
1.81807614e-04	-3.56907733e-02	8.10316998e-03
1.50449314e-02	-3.28645610e-02	1.42472993e-02
3.34883541e-02	-6.11011914e-03	1.06286628e-02
2.98039714e-02	5.13122447e-03	1.02251801e-02
1.94859132e-02	-2.94984517e-02	1.21222481e-02
1.93421468e-02	-1.21195668e-02	1.85142114e-02
-1.91991431e-03	-3.54890979e-02	1.19171464e-02
3.09336786e-02	-1.47442132e-02	1.49469726e-02
2.48671962e-02	-2.76835525e-02	1.58219269e-02
3.12430709e-02	2.46057203e-02	1.22963357e-02
2.69508816e-02	-7.90269701e-03	8.95448948e-03
2.44563355e-02	-2.49464899e-02	9.65696220e-03
1.68259959e-02	-2.56743862e-02	1.35481746e-03
2.13686514e-02	5.36982686e-03	8.07897643e-03
7.52710813e-03	-4.00050676e-02	4.49185531e-03
1.94416682e-02	1.11674507e-02	1.86914832e-02
-8.41591452e-03	-2.63738830e-02	1.29700531e-02
1.66662094e-02	-2.05771355e-02	8.00049052e-03
2.82567093e-02	-2.39619382e-02	1.87670995e-02
2.02768562e-02	-3.07846346e-02	1.76427685e-03
2.90374912e-02	1.87797263e-02	1.33602362e-02
2.78964529e-03	-4.03743253e-02	3.11807014e-03
8.51786987e-03	-2.27458789e-02	2.25005078e-03
3.82691445e-02	-2.27559427e-03	1.70601540e-03
1.55939878e-02	1.28133284e-03	2.72874677e-03
3.19899098e-02	-1.11829172e-02	1.22849546e-02
3.43052632e-02	5.06857053e-03	1.67733456e-02
2.57091614e-02	-2.60462584e-02	1.28366522e-03
3.83237861e-02	-1.38125636e-02	1.82414414e-02
3.14178094e-02	1.80991082e-02	1.28806906e-02
3.46215866e-02	3.45305045e-03	4.97759165e-03
3.48886644e-02	6.28097531e-03	1.31648996e-02
-2.54037364e-03	-4.06519880e-02	1.42574171e-02
-3.67802931e-03	-2.76145685e-02	2.10064978e-03
1.15491757e-03	-3.72769229e-02	2.50591129e-03
3.24114454e-02	-2.22787240e-02	9.53095558e-03
4.49515293e-03	-9.20250920e-03	1.54404071e-02
3.67278473e-02	8.09161065e-04	7.72729067e-03
2.56350842e-02	-2.24676485e-03	8.04458616e-03
2.42310940e-02	-3.11614017e-02	1.44322269e-02
1.90212789e-02	5.63963853e-04	1.10768047e-02
3.73505515e-02	3.90191405e-03	3.13324781e-03
3.12294050e-02	-2.08359880e-02	1.22624433e-02
2.53488059e-02	-1.46649896e-03	1.84448733e-02
2.26312159e-02	-2.79171076e-02	1.82038019e-02
3.28429806e-02	1.80433867e-02	1.00349809e-02
1.80786547e-02	-1.98618598e-03	1.54441405e-02
1.25413557e-02	-2.22791353e-03	8.50073117e-03
3.35484358e-02	9.45335633e-03	6.19455454e-03
3.45418954e-02	1.06209301e-02	2.46502217e-03
-6.77592108e-03	-3.65104150e-02	4.34662562e-03
2.70232584e-02	4.16497006e-03	2.15358308e-03
2.20815123e-02	-7.38743180e-03	1.05185711e-02
1.71317752e-02	-3.56649977e-02	1.97065453e-02
5.22346021e-03	-2.18409047e-02	1.63648641e-02
2.73988775e-02	-1.26850884e-02	8.64672740e-03
3.17798901e-02	5.06399101e-03	9.66615095e-03
6.34758194e-03	-1.60545660e-02	1.57385158e-02
1.24214709e-02	-2.42476968e-02	2.21847087e-03
-4.19342901e-03	-4.05692986e-02	1.47646019e-02
3.39190452e-02	2.44458213e-03	1.78842218e-03
8.58092070e-03	-2.63717476e-02	4.39029594e-03
2.71349678e-02	-2.80193682e-02	1.90261357e-02
2.33488139e-02	1.83752397e-03	2.90903427e-03
3.61490316e-02	-8.08007554e-04	9.76629007e-03
3.59743477e-02	9.40579211e-03	2.41995693e-03
2.54024995e-02	-1.81962269e-02	7.65901337e-03
-1.29789506e-02	-3.51594511e-02	1.88767760e-02
2.38899161e-02	-1.14771245e-02	6.10776997e-03
2.59032526e-02	4.44783236e-03	1.22152788e-02
1.44040672e-02	-2.38219633e-02	8.14225975e-03
3.70006309e-02	3.77309210e-03	9.78057409e-03
8.39751019e-03	-3.32636425e-02	1.71794555e-02
2.01420072e-03	-3.91236213e-02	6.97012397e-03
3.65011384e-02	-3.76091695e-03	1.67239984e-02
1.72757872e-02	-3.65443032e-02	3.09632751e-03
4.63432665e-03	-2.04499511e-02	1.77065215e-02
2.84062984e-02	1.35514759e-02	1.66371876e-02
3.54246206e-02	1.05822570e-02	1.80633017e-02
3.78493753e-02	-1.06656577e-02	7.81785518e-03
2.88877431e-02	-2.91731434e-03	1.09393734e-03
3.18534327e-02	-1.80919227e-02	9.18693609e-03
3.57783939e-02	-9.88012936e-03	1.48718586e-02
3.23346139e-02	-1.59345667e-02	5.55887342e-03
5.28521830e-03	-3.22329209e-02	7.53464285e-03
3.23772834e-02	-1.40049659e-03	6.98851188e-03
2.72030346e-02	2.48911905e-02	1.68568486e-02
-7.92754670e-03	-3.16363821e-02	1.43040367e-02
3.04610737e-02	-1.97411093e-03	1.82209670e-02
3.50356221e-02	1.99210166e-03	1.01167128e-02
1.71862522e-02	-8.72959613e-03	8.74319006e-04
3.52349011e-02	-4.05900673e-03	1.18160645e-02
3.15603142e-02	1.35653187e-02	1.75562069e-02
3.44477665e-02	1.31216705e-03	2.24225270e-03
1.62186958e-02	-2.95113073e-02	9.37156882e-03
2.20663947e-02	-9.88221713e-03	1.82209688e-02
-8.15823565e-03	-3.83362141e-02	3.89106557e-03
2.52789065e-02	1.74725920e-02	1.83379904e-02
9.39737529e-03	-1.48060569e-02	3.51423413e-03
8.69603688e-03	-3.11111022e-02	1.18593486e-02
3.28148096e-02	-9.72208610e-03	1.39704701e-02
2.75309316e-02	-9.49016140e-03	9.31695269e-03
1.15622929e-02	-2.24686129e-02	6.28775172e-03
1.02600110e-02	-3.79131970e-02	1.39731288e-02
1.27342159e-02	-3.89705815e-03	1.38295534e-02
1.36316154e-03	-2.40527197e-02	1.29500542e-02
-1.50553293e-03	-3.42354745e-02	1.82831650e-02
3.48446733e-02	-1.12721329e-02	1.33757100e-02
1.45128252e-02	-3.56699925e-02	1.77136203e-02
-1.48950992e-03	-2.75223423e-02	5.85014286e-03
-7.05546029e-03	-3.52410643e-02	1.79116386e-02
1.69852677e-02	-2.29827194e-03	3.94392936e-03
2.56954600e-02	5.17551209e-03	1.39439085e-02
9.23527276e-03	-2.58853850e-02	1.71104022e-02
2.29822389e-02	-2.73338108e-02	1.54523202e-02
1.77981624e-02	-2.32897093e-02	2.45925983e-03
2.04422290e-02	-3.53829795e-02	1.56084992e-02
2.93456916e-02	-1.47002021e-02	1.73142601e-02
2.34269390e-02	-4.97572545e-03	1.85700672e-02
2.41396728e-02	3.24975022e-03	3.93501641e-03
[...]
POINT_DATA 469
SCALARS Radius double 1
LOOKUP_TABLE default
2.00000000e-03
2.00000000e-03
2.00000000e-03
2.00000000e-03
2.00000000e-03
2.00000000e-03
2.00000000e-03
2.00000000e-03
2.00000000e-03
2.00000000e-03
2.00000000e-03
2.00000000e-03
2.00000000e-03
2.00000000e-03
2.00000000e-03
2.00000000e-03
2.00000000e-03
2.00000000e-03
2.00000000e-03
2.00000000e-03
2.00000000e-03
2.00000000e-03
2.00000000e-03
2.00000000e-03
2.00000000e-03
2.00000000e-03
2.00000000e-03
2.00000000e-03
2.00000000e-03
2.00000000e-03
2.00000000e-03
2.00000000e-03
2.00000000e-03
2.00000000e-03
2.00000000e-03
2.00000000e-03
2.00000000e-03
2.00000000e-03
2.00000000e-03
2.00000000e-03
2.00000000e-03
2.00000000e-03
2.00000000e-03
2.00000000e-03
2.00000000e-03
2.00000000e-03
2.00000000e-03
2.00000000e-03
2.00000000e-03
2.00000000e-03
2.00000000e-03
2.00000000e-03
2.00000000e-03
2.00000000e-03
2.00000000e-03
2.00000000e-03
2.00000000e-03
2.00000000e-03
2.00000000e-03
2.00000000e-03
2.00000000e-03
2.00000000e-03
2.00000000e-03
2.00000000e-03
2.00000000e-03
2.00000000e-03
2.00000000e-03
2.00000000e-03
2.00000000e-03
2.00000000e-03
2.00000000e-03
2.00000000e-03
2.00000000e-03
2.00000000e-03
2.00000000e-03
2.00000000e-03
2.00000000e-03
2.00000000e-03
2.00000000e-03
2.00000000e-03
2.00000000e-03
2.00000000e-03
2.00000000e-03
2.00000000e-03
2.00000000e-03
2.00000000e-03
2.00000000e-03
2.00000000e-03
2.00000000e-03
2.00000000e-03
2.00000000e-03
2.00000000e-03
2.00000000e-03
2.00000000e-03
2.00000000e-03
2.00000000e-03
2.00000000e-03
2.00000000e-03
2.00000000e-03
2.00000000e-03
2.00000000e-03
2.00000000e-03
2.00000000e-03
2.00000000e-03
2.00000000e-03
2.00000000e-03
2.00000000e-03
2.00000000e-03
2.00000000e-03
2.00000000e-03
2.00000000e-03
2.00000000e-03
2.00000000e-03
2.00000000e-03
2.00000000e-03
2.00000000e-03
2.00000000e-03
2.00000000e-03
2.00000000e-03
2.00000000e-03
2.00000000e-03
2.00000000e-03
2.00000000e-03
2.00000000e-03
2.00000000e-03
2.00000000e-03
2.00000000e-03
2.00000000e-03
2.00000000e-03
2.00000000e-03
2.00000000e-03
2.00000000e-03
2.00000000e-03
2.00000000e-03
2.00000000e-03
2.00000000e-03
2.00000000e-03
2.00000000e-03
2.00000000e-03
2.00000000e-03
2.00000000e-03
2.00000000e-03
2.00000000e-03
2.00000000e-03
2.00000000e-03
2.00000000e-03
2.00000000e-03
2.00000000e-03
2.00000000e-03
2.00000000e-03
2.00000000e-03
2.00000000e-03
2.00000000e-03
2.00000000e-03
2.00000000e-03
2.00000000e-03
2.00000000e-03
2.00000000e-03
2.00000000e-03
2.00000000e-03
2.00000000e-03
2.00000000e-03
2.00000000e-03
2.00000000e-03
2.00000000e-03
2.00000000e-03
2.00000000e-03
2.00000000e-03
2.00000000e-03
2.00000000e-03
2.00000000e-03
2.00000000e-03
2.00000000e-03
2.00000000e-03
2.00000000e-03
2.00000000e-03
2.00000000e-03
2.00000000e-03
2.00000000e-03
2.00000000e-03
2.00000000e-03
2.00000000e-03
2.00000000e-03
2.00000000e-03
2.00000000e-03
2.00000000e-03
2.00000000e-03
2.00000000e-03
2.00000000e-03
2.00000000e-03
2.00000000e-03
2.00000000e-03
2.00000000e-03
2.00000000e-03
2.00000000e-03
2.00000000e-03
2.00000000e-03
2.00000000e-03
2.00000000e-03
2.00000000e-03
2.00000000e-03
2.00000000e-03
2.00000000e-03
2.00000000e-03
2.00000000e-03
2.00000000e-03
2.00000000e-03
2.00000000e-03
2.00000000e-03
2.00000000e-03
2.00000000e-03
2.00000000e-03
2.00000000e-03
2.00000000e-03
2.00000000e-03
2.00000000e-03
2.00000000e-03
2.00000000e-03
2.00000000e-03
2.00000000e-03
2.00000000e-03
2.00000000e-03
2.00000000e-03
2.00000000e-03
2.00000000e-03
2.00000000e-03
2.00000000e-03
2.00000000e-03
2.00000000e-03
2.00000000e-03
2.00000000e-03
2.00000000e-03
2.00000000e-03
2.00000000e-03
2.00000000e-03
2.00000000e-03
2.00000000e-03
2.00000000e-03
2.00000000e-03
2.00000000e-03
2.00000000e-03
2.00000000e-03
2.00000000e-03
2.00000000e-03
2.00000000e-03
2.00000000e-03
2.00000000e-03
2.00000000e-03
2.00000000e-03
2.00000000e-03
2.00000000e-03
2.00000000e-03
2.00000000e-03
2.00000000e-03
2.00000000e-03
2.00000000e-03
2.00000000e-03
2.00000000e-03
2.00000000e-03
2.00000000e-03
2.00000000e-03
2.00000000e-03
2.00000000e-03
2.00000000e-03
2.00000000e-03
2.00000000e-03
2.00000000e-03
2.00000000e-03
2.00000000e-03
2.00000000e-03
2.00000000e-03
2.00000000e-03
2.00000000e-03
2.00000000e-03
2.00000000e-03
2.00000000e-03
2.00000000e-03
2.00000000e-03
2.00000000e-03
2.00000000e-03
2.00000000e-03
2.00000000e-03
2.00000000e-03
2.00000000e-03
2.00000000e-03
2.00000000e-03
2.00000000e-03
2.00000000e-03
2.00000000e-03
2.00000000e-03
2.00000000e-03
2.00000000e-03
2.00000000e-03
2.00000000e-03
2.00000000e-03
2.00000000e-03
2.00000000e-03
2.00000000e-03
2.00000000e-03
2.00000000e-03
2.00000000e-03
2.00000000e-03
2.00000000e-03
2.00000000e-03
2.00000000e-03
2.00000000e-03
2.00000000e-03
2.00000000e-03
2.00000000e-03
2.00000000e-03
2.00000000e-03
2.00000000e-03
2.00000000e-03
2.00000000e-03
2.00000000e-03
2.00000000e-03
2.00000000e-03
2.00000000e-03
2.00000000e-03
2.00000000e-03
2.00000000e-03
2.00000000e-03
2.00000000e-03
2.00000000e-03
2.00000000e-03
2.00000000e-03
2.00000000e-03
2.00000000e-03
2.00000000e-03
2.00000000e-03
2.00000000e-03
2.00000000e-03
2.00000000e-03
2.00000000e-03
2.00000000e-03
2.00000000e-03
2.00000000e-03
2.00000000e-03
2.00000000e-03
2.00000000e-03
2.00000000e-03
2.00000000e-03
2.00000000e-03
2.00000000e-03
2.00000000e-03
2.00000000e-03
2.00000000e-03
2.00000000e-03
2.00000000e-03
2.00000000e-03
2.00000000e-03
2.00000000e-03
2.00000000e-03
2.00000000e-03
2.00000000e-03
2.00000000e-03
2.00000000e-03
2.00000000e-03
2.00000000e-03
2.00000000e-03
2.00000000e-03
2.00000000e-03
2.00000000e-03
2.00000000e-03
2.00000000e-03
2.00000000e-03
2.00000000e-03
2.00000000e-03
2.00000000e-03
2.00000000e-03
2.00000000e-03
2.00000000e-03
2.00000000e-03
2.00000000e-03
2.00000000e-03
2.00000000e-03
2.00000000e-03
2.00000000e-03
2.00000000e-03
2.00000000e-03
2.00000000e-03
2.00000000e-03
2.00000000e-03
2.00000000e-03
2.00000000e-03
2.00000000e-03
2.00000000e-03
2.00000000e-03
2.00000000e-03
2.00000000e-03
2.00000000e-03
2.00000000e-03
2.00000000e-03
2.00000000e-03
2.00000000e-03
2.00000000e-03
2.00000000e-03
2.00000000e-03
2.00000000e-03
2.00000000e-03
2.00000000e-03
2.00000000e-03
2.00000000e-03
2.00000000e-03
2.00000000e-03
2.00000000e-03
2.00000000e-03
2.00000000e-03
2.00000000e-03
2.00000000e-03
2.00000000e-03
2.00000000e-03
2.00000000e-03
2.00000000e-03
2.00000000e-03
2.00000000e-03
2.00000000e-03
2.00000000e-03
2.00000000e-03
2.00000000e-03
2.00000000e-03
2.00000000e-03
2.00000000e-03
2.00000000e-03
2.00000000e-03
2.00000000e-03
2.00000000e-03
2.00000000e-03
2.00000000e-03
2.00000000e-03
2.00000000e-03
2.00000000e-03
2.00000000e-03
2.00000000e-03
2.00000000e-03
2.00000000e-03
2.00000000e-03
2.00000000e-03
2.00000000e-03
2.00000000e-03
2.00000000e-03
2.00000000e-03
2.00000000e-03
2.00000000e-03
2.00000000e-03
2.00000000e-03
2.00000000e-03
2.00000000e-03
2.00000000e-03
2.00000000e-03
2.00000000e-03
2.00000000e-03
2.00000000e-03
2.00000000e-03
2.00000000e-03
2.00000000e-03
2.00000000e-03
2.00000000e-03
2.00000000e-03
2.00000000e-03
2.00000000e-03
2.00000000e-03
2.00000000e-03
2.00000000e-03
2.00000000e-03
2.00000000e-03
2.00000000e-03
2.00000000e-03
2.00000000e-03
