# vtk DataFile Version 2.0
Particle data
ASCII
DATASET POLYDATA
POINTS 469 double
1.46644390e-02	-3.26679820e-02	8.52416171e-03
5.90600954e-03	-2.83847860e-02	1.17928823e-02
8.98731404e-03	-1.02675911e-02	1.94453434e-03
3.99052836e-02	1.62448099e-03	1.79729301e-02
6.23779874e-03	-2.00377640e-02	2.57142013e-03
1.89117144e-02	-3.58757218e-02	2.55130188e-03
1.22777416e-02	-3.13000109e-02	1.14626825e-02
2.63663469e-02	-1.16576685e-02	1.74608271e-02
-4.27376910e-03	-3.25992001e-02	1.80274109e-02
3.36981537e-02	1.51820327e-02	1.15461355e-02
2.37622867e-02	-3.21628656e-02	1.77864408e-02
6.57054107e-03	-3.02409398e-02	1.74293891e-02
-1.28255825e-02	-3.27147432e-02	1.13013451e-02
1.60830694e-02	3.03887514e-03	2.00337058e-03
2.07525190e-02	-3.44346492e-02	1.45627938e-02
3.31070326e-02	2.06943566e-03	1.20109372e-02
3.63857536e-02	-3.39779679e-03	1.41213220e-02
6.39438179e-04	-3.41411722e-02	1.96666349e-03
2.91003552e-02	-1.25464507e-02	1.40840805e-02
2.57557905e-02	-2.81353629e-02	1.09333726e-02
2.75284871e-02	-2.38238023e-02	2.07316810e-03
-9.13392867e-03	-3.33048959e-02	1.80624561e-02
3.71247960e-02	5.25759086e-03	1.14539034e-02
2.16026789e-02	-1.03497256e-02	2.47200362e-03
2.10506169e-02	6.20340224e-03	2.23712374e-03
3.51933481e-02	1.04584584e-02	1.47167655e-02
3.47390801e-02	-1.96043603e-02	1.41260596e-02
-3.32726046e-03	-3.67425715e-02	1.29765817e-02
3.95882776e-02	-6.25563723e-03	1.61626678e-02
1.79944077e-02	-1.45603901e-02	1.36099474e-02
-1.49035126e-03	-3.20284371e-02	1.15639057e-02
4.44124805e-03	-4.10664637e-02	2.10259450e-03
2.26714496e-03	-3.57073649e-02	5.34687522e-03
2.03848411e-02	1.95089829e-03	1.79507851e-02
2.61993179e-02	5.61895160e-03	9.24676363e-03
1.24339980e-02	-3.22881470e-03	9.55529168e-03
1.99135716e-02	-3.38116593e-02	6.41273897e-03
3.36717479e-02	-1.38480103e-02	9.64542441e-03
8.63260276e-03	-3.11749543e-02	1.07323878e-02
1.94304764e-02	-1.29368642e-03	2.26088300e-03
3.23106377e-02	-1.65196399e-02	7.93364902e-03
3.03799986e-03	-3.74032368e-02	1.53818139e-02
2.40078290e-02	1.44630094e-02	2.05279290e-03
1.45408891e-02	-2.38423487e-02	1.48834315e-02
3.46939696e-02	5.38178099e-03	1.46495372e-02
2.81314916e-02	-2.32997424e-02	1.12124333e-02
2.13635938e-02	-2.18391675e-02	1.38776099e-02
2.12871974e-02	-1.94704793e-02	5.60548412e-03
2.21130077e-02	-1.32380835e-02	1.04085292e-02
1.30567951e-02	-2.80719321e-02	1.80494383e-02
1.62282783e-02	-1.64493288e-02	2.36209068e-03
1.87587017e-02	-1.31914195e-02	3.56419881e-03
3.64108273e-02	1.98438462e-03	1.67276500e-02
2.70418841e-02	-1.00717678e-02	8.40141907e-03
3.88190131e-02	9.65037643e-03	4.08051935e-03
3.86772984e-02	-1.02039435e-02	1.42627854e-02
3.42750442e-02	1.18750364e-02	9.46181108e-03
2.47464832e-02	-2.16558060e-02	1.51893037e-02
3.58611355e-02	1.63804594e-02	1.44338199e-02
3.22056227e-02	1.59829267e-02	1.70003720e-02
2.13031738e-02	1.70725370e-02	1.75831808e-02
2.43689933e-02	-3.04760783e-03	1.13240780e-02
1.73916130e-02	-2.04231596e-02	1.82455288e-02
3.63668491e-02	-4.97098264e-03	1.04497548e-02
2.67426561e-03	-1.79254234e-02	6.69279881e-03
2.87793835e-02	-2.75433820e-02	6.64620958e-03
2.66359170e-02	1.61413316e-02	5.77919929e-03
3.05098653e-03	-3.08426466e-02	1.78822373e-02
3.76633630e-02	1.34495441e-02	1.19372970e-02
1.83420802e-02	8.78075513e-03	9.84353723e-03
3.58742373e-02	-1.68976407e-02	6.37987944e-03
-9.66301564e-03	-3.50948230e-02	2.20984253e-03
1.90883433e-02	-2.91651305e-02	1.78451847e-02
3.10647077e-02	-2.04081603e-02	8.63143169e-03
7.75504593e-03	-3.91106295e-02	5.77320179e-03
3.39887483e-02	-2.06382216e-02	1.80343216e-02
3.04199316e-02	-1.18776974e-02	5.84010505e-03
1.12481218e-02	-2.70009650e-02	8.77495774e-03
-2.57654308e-03	-2.47086194e-02	1.27279591e-02
2.35662182e-02	-8.54613262e-03	1.81097727e-02
2.53554020e-02	-2.09276450e-02	5.22705293e-03
2.05202664e-02	7.30200150e-05	7.80463413e-03
2.83114260e-02	1.41377114e-02	2.02176188e-03
2.39968358e-02	1.71237249e-02	1.76955418e-02
2.41384231e-02	4.82211165e-03	1.83504642e-03
2.93433690e-02	-2.72806746e-02	1.89548960e-03
6.96247713e-03	-3.59524261e-02	1.44440865e-02
3.67125774e-02	1.23627792e-03	1.27657059e-02
2.30390877e-02	8.38416148e-03	6.00847454e-03
3.10916815e-02	-3.75892144e-03	6.95718659e-03
2.93448537e-02	-2.14982977e-02	5.12422542e-03
1.34219066e-02	-2.79295188e-02	2.22680873e-03
-4.50865960e-03	-2.99155738e-02	6.51575993e-03
3.52756250e-02	-1.84684688e-02	9.90921674e-03
1.46387869e-02	-2.88758343e-03	1.40720471e-02
-8.04240405e-03	-3.82630343e-02	7.98541820e-03
3.62047572e-02	-1.38466574e-04	8.90209896e-03
3.00436813e-02	9.67423358e-03	1.81415304e-02
1.98536700e-02	-1.19454902e-02	1.77812730e-02
1.52357742e-02	-1.17346393e-02	1.37407077e-02
3.02836467e-02	-3.73191052e-04	2.08572565e-03
3.00920330e-02	-1.22824631e-03	1.15039963e-02
3.45461336e-02	-6.87386046e-03	1.35156368e-02
-1.56591391e-02	-3.30883162e-02	1.54980830e-02
3.46200734e-02	7.44032196e-03	9.40469157e-03
2.31348618e-02	-1.36897441e-02	1.87370312e-03
3.29118538e-02	1.79396518e-03	2.11758899e-03
2.41321023e-02	-8.07793039e-03	2.60065736e-03
2.61125170e-02	1.76041286e-02	1.85853305e-03
1.10160744e-02	-1.81452991e-02	5.92886563e-03
3.32440618e-02	-1.75615368e-03	4.53743776e-03
3.00390345e-02	-2.19072552e-02	1.80808610e-02
2.44960651e-02	-2.42007948e-02	1.17537003e-02
3.62535100e-02	-7.27594865e-04	2.39896023e-03
2.31936609e-02	1.26632190e-02	1.80730796e-02
3.19110933e-02	1.21705740e-02	2.07281882e-03
3.76444097e-02	-1.31732594e-02	1.00692170e-02
3.08367219e-02	3.71444387e-03	9.33338993e-03
2.41859163e-03	-2.90009562e-02	1.05694967e-02
4.77276725e-03	-3.88392641e-02	6.18195127e-03
1.82181800e-02	-2.70016635e-02	1.93973443e-03
1.81238105e-02	-1.60028348e-02	1.79222487e-02
2.76191697e-02	-2.84721145e-02	1.71745304e-02
1.51181332e-02	3.70543927e-03	1.59412353e-02
-1.48652631e-02	-3.47347839e-02	1.81105262e-02
2.58351111e-02	-2.66268913e-02	4.59561130e-03
1.67889277e-02	-3.68424423e-02	5.10038372e-03
6.82173124e-03	-2.99851188e-02	7.18202072e-03
3.57061138e-02	-9.04270229e-03	8.94445522e-03
3.27522831e-02	-8.53252102e-03	1.96629641e-03
3.38528963e-02	-1.40349962e-02	5.63494117e-03
-1.29298842e-02	-3.61307021e-02	4.89216466e-03
2.62090353e-02	-1.96339202e-02	1.80736411e-02
1.95455964e-03	-3.50563549e-02	1.25991675e-02
2.02976432e-02	-8.27938428e-03	1.29388149e-02
2.96470311e-02	1.86232437e-02	5.71771614e-03
-1.11323718e-03	-3.12874310e-02	4.35435621e-03
1.62621522e-02	-3.42145075e-02	2.50792743e-03
3.04882217e-02	4.40809948e-03	1.45798514e-02
3.33978202e-02	-1.39178464e-02	1.74427431e-02
2.81278874e-02	1.82762516e-02	1.65528027e-02
2.27157603e-02	-2.66983563e-02	2.14228651e-03
2.43183963e-02	-2.67851911e-02	1.44932276e-02
3.75140416e-02	-1.32080874e-02	6.10075861e-03
1.66533519e-02	-2.92586559e-02	8.43862243e-03
2.60592977e-02	-3.01373875e-02	2.59359463e-03
3.95190326e-02	7.86860327e-03	1.03952054e-02
2.25168067e-02	-3.29639690e-02	2.09573809e-03
2.49412021e-02	-6.19389259e-03	8.51816546e-03
2.37732602e-02	5.75775821e-03	1.82263880e-02
2.05661302e-02	-2.69062184e-02	1.11452535e-02
2.81865577e-02	2.65341329e-03	1.82030770e-02
1.31951890e-02	-3.79160839e-02	1.15054969e-02
3.24678341e-02	-2.32589047e-02	1.49051414e-02
1.57677399e-02	-2.16496964e-02	1.23778647e-02
2.24582059e-02	-1.76411171e-02	1.03117257e-02
1.29280717e-02	-3.82900887e-02	5.97887620e-03
1.28700984e-02	-1.27579478e-02	4.46855191e-03
-1.48811876e-02	-3.09426863e-02	9.24489429e-03
1.96801218e-02	-2.30062927e-02	2.15269947e-03
-4.91827735e-03	-3.58416024e-02	6.40558080e-03
1.44504854e-02	-3.75572264e-02	2.40041300e-03
3.28881641e-02	1.97506384e-02	1.46155164e-02
3.27170488e-02	-7.39697144e-03	1.80376018e-02
2.87331740e-02	8.72528242e-03	2.54289700e-03
9.27007405e-03	-2.49251565e-02	1.18322111e-02
1.67966525e-02	-2.01877758e-02	6.77807975e-03
2.20703553e-02	-2.86911979e-02	4.98585057e-03
4.00389699e-02	-2.02825603e-03	1.79340477e-02
3.24196593e-02	7.56969879e-04	8.18874853e-03
1.68181994e-02	-3.67035382e-02	9.23495251e-03
3.42728540e-02	1.68625725e-02	2.68706427e-03
1.99111057e-02	-2.16209592e-02	1.01632909e-02
7.12559216e-03	-3.18088941e-02	1.46536464e-02
1.25936610e-02	-2.78757645e-02	5.82811912e-03
1.06865455e-02	-3.52585363e-02	1.27691625e-02
-1.96765781e-03	-4.02264908e-02	2.05808140e-03
-8.93281447e-03	-2.99783763e-02	1.57992208e-02
9.22856175e-03	-3.91886254e-02	1.80703325e-02
2.73983532e-02	-6.42417469e-03	5.31879633e-03
4.01665431e-02	-8.13683595e-04	1.40691830e-02
2.26722566e-02	-6.16467053e-03	5.47935360e-03
1.16948741e-02	-2.26332755e-02	1.81830548e-02
3.96098665e-02	2.03655959e-03	7.29785214e-03
1.75458521e-02	-7.84887023e-03	1.55358625e-02
1.03024176e-02	-3.92034401e-02	9.58434243e-03
2.21626665e-02	-2.88416943e-02	1.34629305e-02
-6.60233247e-05	-3.91099637e-02	1.31708751e-02
2.09549458e-02	-2.05841250e-02	1.75381247e-02
9.50445548e-03	-3.79597221e-02	1.85271976e-03
3.53854186e-02	7.34639506e-03	1.76462738e-02
3.21967150e-02	1.21292765e-02	1.43601080e-02
3.91280798e-02	9.17533513e-03	1.45849898e-02
3.93344192e-02	-5.42523349e-03	7.60997490e-03
2.27322767e-02	-9.90608131e-03	6.31753710e-03
2.94535971e-02	-7.48517245e-03	1.81354655e-02
2.89982189e-02	1.04875861e-02	1.10354513e-02
1.83877600e-02	-1.74981048e-02	9.39687336e-03
1.47523681e-02	-2.33140998e-02	1.08857845e-02
3.64662771e-02	1.61632584e-02	1.81327332e-02
3.33861787e-02	-2.16845175e-02	1.12881913e-02
2.63600651e-02	-2.45094135e-02	7.44765406e-03
3.19939881e-02	-6.11266822e-03	1.02592984e-02
-1.37363328e-02	-3.51986331e-02	1.29793796e-02
3.95810804e-02	4.20148884e-03	1.48345933e-02
2.31083612e-02	-2.28751760e-02	8.19881099e-03
2.30476380e-02	-1.59129176e-02	1.41578846e-02
3.58561706e-02	-1.74431544e-02	1.74239257e-02
-1.34597634e-03	-2.83701560e-02	1.39596066e-02
2.90780792e-02	-1.60700286e-02	1.49021187e-02
2.51420561e-02	1.68174618e-02	1.32246984e-02
3.48068929e-02	5.62929564e-03	2.14339176e-03
3.36678186e-02	1.73677946e-02	6.55070568e-03
2.94763221e-02	-1.44080265e-04	1.52130704e-02
2.05940785e-04	-3.21268120e-02	1.49395449e-02
1.95902435e-02	9.88919701e-03	5.27944411e-03
[...]
POINT_DATA 469
SCALARS Radius double 1
LOOKUP_TABLE default
2.00000000e-03
2.00000000e-03
2.00000000e-03
2.00000000e-03
2.00000000e-03
2.00000000e-03
2.00000000e-03
2.00000000e-03
2.00000000e-03
2.00000000e-03
2.00000000e-03
2.00000000e-03
2.00000000e-03
2.00000000e-03
2.00000000e-03
2.00000000e-03
2.00000000e-03
2.00000000e-03
2.00000000e-03
2.00000000e-03
2.00000000e-03
2.00000000e-03
2.00000000e-03
2.00000000e-03
2.00000000e-03
2.00000000e-03
2.00000000e-03
2.00000000e-03
2.00000000e-03
2.00000000e-03
2.00000000e-03
2.00000000e-03
2.00000000e-03
2.00000000e-03
2.00000000e-03
2.00000000e-03
2.00000000e-03
2.00000000e-03
2.00000000e-03
2.00000000e-03
2.00000000e-03
2.00000000e-03
2.00000000e-03
2.00000000e-03
2.00000000e-03
2.00000000e-03
2.00000000e-03
2.00000000e-03
2.00000000e-03
2.00000000e-03
2.00000000e-03
2.00000000e-03
2.00000000e-03
2.00000000e-03
2.00000000e-03
2.00000000e-03
2.00000000e-03
2.00000000e-03
2.00000000e-03
2.00000000e-03
2.00000000e-03
2.00000000e-03
2.00000000e-03
2.00000000e-03
2.00000000e-03
2.00000000e-03
2.00000000e-03
2.00000000e-03
2.00000000e-03
2.00000000e-03
2.00000000e-03
2.00000000e-03
2.00000000e-03
2.00000000e-03
2.00000000e-03
2.00000000e-03
2.00000000e-03
2.00000000e-03
2.00000000e-03
2.00000000e-03
2.00000000e-03
2.00000000e-03
2.00000000e-03
2.00000000e-03
2.00000000e-03
2.00000000e-03
2.00000000e-03
2.00000000e-03
2.00000000e-03
2.00000000e-03
2.00000000e-03
2.00000000e-03
2.00000000e-03
2.00000000e-03
2.00000000e-03
2.00000000e-03
2.00000000e-03
2.00000000e-03
2.00000000e-03
2.00000000e-03
2.00000000e-03
2.00000000e-03
2.00000000e-03
2.00000000e-03
2.00000000e-03
2.00000000e-03
2.00000000e-03
2.00000000e-03
2.00000000e-03
2.00000000e-03
2.00000000e-03
2.00000000e-03
2.00000000e-03
2.00000000e-03
2.00000000e-03
2.00000000e-03
2.00000000e-03
2.00000000e-03
2.00000000e-03
2.00000000e-03
2.00000000e-03
2.00000000e-03
2.00000000e-03
2.00000000e-03
2.00000000e-03
2.00000000e-03
2.00000000e-03
2.00000000e-03
2.00000000e-03
2.00000000e-03
2.00000000e-03
2.00000000e-03
2.00000000e-03
2.00000000e-03
2.00000000e-03
2.00000000e-03
2.00000000e-03
2.00000000e-03
2.00000000e-03
2.00000000e-03
2.00000000e-03
2.00000000e-03
2.00000000e-03
2.00000000e-03
2.00000000e-03
2.00000000e-03
2.00000000e-03
2.00000000e-03
2.00000000e-03
2.00000000e-03
2.00000000e-03
2.00000000e-03
2.00000000e-03
2.00000000e-03
2.00000000e-03
2.00000000e-03
2.00000000e-03
2.00000000e-03
2.00000000e-03
2.00000000e-03
2.00000000e-03
2.00000000e-03
2.00000000e-03
2.00000000e-03
2.00000000e-03
2.00000000e-03
2.00000000e-03
2.00000000e-03
2.00000000e-03
2.00000000e-03
2.00000000e-03
2.00000000e-03
2.00000000e-03
2.00000000e-03
2.00000000e-03
2.00000000e-03
2.00000000e-03
2.00000000e-03
2.00000000e-03
2.00000000e-03
2.00000000e-03
2.00000000e-03
2.00000000e-03
2.00000000e-03
2.00000000e-03
2.00000000e-03
2.00000000e-03
2.00000000e-03
2.00000000e-03
2.00000000e-03
2.00000000e-03
2.00000000e-03
2.00000000e-03
2.00000000e-03
2.00000000e-03
2.00000000e-03
2.00000000e-03
2.00000000e-03
2.00000000e-03
2.00000000e-03
2.00000000e-03
2.00000000e-03
2.00000000e-03
2.00000000e-03
2.00000000e-03
2.00000000e-03
2.00000000e-03
2.00000000e-03
2.00000000e-03
2.00000000e-03
2.00000000e-03
2.00000000e-03
2.00000000e-03
2.00000000e-03
2.00000000e-03
2.00000000e-03
2.00000000e-03
2.00000000e-03
2.00000000e-03
2.00000000e-03
2.00000000e-03
2.00000000e-03
2.00000000e-03
2.00000000e-03
2.00000000e-03
2.00000000e-03
2.00000000e-03
2.00000000e-03
2.00000000e-03
2.00000000e-03
2.00000000e-03
2.00000000e-03
2.00000000e-03
2.00000000e-03
2.00000000e-03
2.00000000e-03
2.00000000e-03
2.00000000e-03
2.00000000e-03
2.00000000e-03
2.00000000e-03
2.00000000e-03
2.00000000e-03
2.00000000e-03
2.00000000e-03
2.00000000e-03
2.00000000e-03
2.00000000e-03
2.00000000e-03
2.00000000e-03
2.00000000e-03
2.00000000e-03
2.00000000e-03
2.00000000e-03
2.00000000e-03
2.00000000e-03
2.00000000e-03
2.00000000e-03
2.00000000e-03
2.00000000e-03
2.00000000e-03
2.00000000e-03
2.00000000e-03
2.00000000e-03
2.00000000e-03
2.00000000e-03
2.00000000e-03
2.00000000e-03
2.00000000e-03
2.00000000e-03
2.00000000e-03
2.00000000e-03
2.00000000e-03
2.00000000e-03
2.00000000e-03
2.00000000e-03
2.00000000e-03
2.00000000e-03
2.00000000e-03
2.00000000e-03
2.00000000e-03
2.00000000e-03
2.00000000e-03
2.00000000e-03
2.00000000e-03
2.00000000e-03
2.00000000e-03
2.00000000e-03
2.00000000e-03
2.00000000e-03
2.00000000e-03
2.00000000e-03
2.00000000e-03
2.00000000e-03
2.00000000e-03
2.00000000e-03
2.00000000e-03
2.00000000e-03
2.00000000e-03
2.00000000e-03
2.00000000e-03
2.00000000e-03
2.00000000e-03
2.00000000e-03
2.00000000e-03
2.00000000e-03
2.00000000e-03
2.00000000e-03
2.00000000e-03
2.00000000e-03
2.00000000e-03
2.00000000e-03
2.00000000e-03
2.00000000e-03
2.00000000e-03
2.00000000e-03
2.00000000e-03
2.00000000e-03
2.00000000e-03
2.00000000e-03
2.00000000e-03
2.00000000e-03
2.00000000e-03
2.00000000e-03
2.00000000e-03
2.00000000e-03
2.00000000e-03
2.00000000e-03
2.00000000e-03
2.00000000e-03
2.00000000e-03
2.00000000e-03
2.00000000e-03
2.00000000e-03
2.00000000e-03
2.00000000e-03
2.00000000e-03
2.00000000e-03
2.00000000e-03
2.00000000e-03
2.00000000e-03
2.00000000e-03
2.00000000e-03
2.00000000e-03
2.00000000e-03
2.00000000e-03
2.00000000e-03
2.00000000e-03
2.00000000e-03
2.00000000e-03
2.00000000e-03
2.00000000e-03
2.00000000e-03
2.00000000e-03
2.00000000e-03
2.00000000e-03
2.00000000e-03
2.00000000e-03
2.00000000e-03
2.00000000e-03
2.00000000e-03
2.00000000e-03
2.00000000e-03
2.00000000e-03
2.00000000e-03
2.00000000e-03
2.00000000e-03
2.00000000e-03
2.00000000e-03
2.00000000e-03
2.00000000e-03
2.00000000e-03
2.00000000e-03
2.00000000e-03
2.00000000e-03
2.00000000e-03
2.00000000e-03
2.00000000e-03
2.00000000e-03
2.00000000e-03
2.00000000e-03
2.00000000e-03
2.00000000e-03
2.00000000e-03
2.00000000e-03
2.00000000e-03
2.00000000e-03
2.00000000e-03
2.00000000e-03
2.00000000e-03
2.00000000e-03
2.00000000e-03
2.00000000e-03
2.00000000e-03
2.00000000e-03
2.00000000e-03
2.00000000e-03
2.00000000e-03
2.00000000e-03
2.00000000e-03
2.00000000e-03
2.00000000e-03
2.00000000e-03
2.00000000e-03
2.00000000e-03
2.00000000e-03
2.00000000e-03
2.00000000e-03
2.00000000e-03
2.00000000e-03
2.00000000e-03
2.00000000e-03
2.00000000e-03
2.00000000e-03
2.00000000e-03
2.00000000e-03
2.00000000e-03
2.00000000e-03
2.00000000e-03
2.00000000e-03
2.00000000e-03
2.00000000e-03
2.00000000e-03
2.00000000e-03
2.00000000e-03
2.00000000e-03
2.00000000e-03
2.00000000e-03
2.00000000e-03
2.00000000e-03
2.00000000e-03
2.00000000e-03
2.00000000e-03
2.00000000e-03
2.00000000e-03
2.00000000e-03
2.00000000e-03
2.00000000e-03
2.00000000e-03
2.00000000e-03
2.00000000e-03
2.00000000e-03
2.00000000e-03
2.00000000e-03
2.00000000e-03
2.00000000e-03
2.00000000e-03
2.00000000e-03
2.00000000e-03
2.00000000e-03
2.00000000e-03
2.00000000e-03
2.00000000e-03
2.00000000e-03
2.00000000e-03
2.00000000e-03
2.00000000e-03
2.00000000e-03
2.00000000e-03
2.00000000e-03
2.00000000e-03
2.00000000e-03
2.00000000e-03
2.00000000e-03
2.00000000e-03
2.00000000e-03
2.00000000e-03
2.00000000e-03
2.00000000e-03
