# vtk DataFile Version 2.0
Particle data
ASCII
DATASET POLYDATA
POINTS 469 double
3.14020781e-02	-1.75088793e-02	8.58535568e-03
2.09315519e-02	-2.48236232e-02	1.36677938e-02
9.14227033e-03	-2.99859583e-02	5.65481982e-03
2.97840647e-02	1.47425420e-02	1.79914621e-02
1.65664196e-02	-2.38215942e-02	2.50033090e-03
3.54804576e-02	-1.84496405e-02	2.52199218e-03
2.85284706e-02	-1.82815726e-02	1.11651821e-02
2.49837723e-02	-1.84039562e-03	1.80899710e-02
1.47675268e-02	-3.26887373e-02	1.81855681e-02
-7.08347484e-03	-2.03513046e-02	1.78222131e-02
3.77642731e-02	-1.29332491e-02	1.77819289e-02
2.28335652e-02	-2.20155302e-02	1.80648336e-02
2.77785365e-03	-3.98280035e-02	1.17575052e-02
1.02542035e-02	-2.53408224e-02	2.54190672e-03
3.67658485e-02	-1.55834720e-02	1.43750338e-02
2.07185645e-02	1.24956018e-03	1.43258839e-02
3.05999857e-02	1.07400778e-02	1.46937134e-02
2.00277451e-02	-3.10372359e-02	1.95157310e-03
2.99867559e-02	2.44926375e-03	1.31091027e-02
3.71269652e-02	-9.79179554e-03	1.09749272e-02
3.61674558e-02	-5.31240891e-03	2.03878313e-03
9.41176896e-03	-3.65315016e-02	1.80460327e-02
1.50919663e-02	2.34678730e-03	8.32988902e-03
1.64835167e-02	-1.27323386e-02	2.20611854e-03
6.37163308e-03	-2.52009684e-02	2.23568599e-03
8.66774542e-03	-2.96319508e-03	1.12568705e-02
3.99612340e-02	3.55657854e-03	1.37873297e-02
1.62404824e-02	-3.32630158e-02	1.37252885e-02
3.57620760e-02	1.50222280e-02	1.54538438e-02
2.11664957e-02	-1.35651382e-02	1.35898232e-02
1.47768019e-02	-3.12523157e-02	1.03106874e-02
2.64530314e-02	-3.13512763e-02	2.30485217e-03
2.09110422e-02	-2.92245205e-02	5.69081212e-03
5.07368726e-03	-2.56911254e-02	1.75724563e-02
-7.14512328e-03	-3.20440290e-02	1.00070482e-02
1.07630889e-02	-3.15083167e-02	1.13259576e-02
3.69101634e-02	-1.67264157e-02	6.49222436e-03
3.56099714e-02	6.51706293e-03	9.78940869e-03
2.44150915e-02	-2.11186563e-02	1.07377238e-02
1.41824283e-02	-1.74025113e-02	2.83665794e-03
3.60362641e-02	3.10645170e-03	7.84289994e-03
2.48472750e-02	-3.06553436e-02	1.54266096e-02
-1.21615508e-02	-3.53721058e-02	2.11096573e-03
2.56496287e-02	-1.39669154e-02	1.42633962e-02
1.75080438e-02	2.41823182e-03	1.45675476e-02
3.62638609e-02	-3.70486713e-03	1.12869800e-02
2.98756551e-02	-7.34108230e-03	1.40867705e-02
2.68819252e-02	-7.92346528e-03	6.32076113e-03
1.90335802e-02	-1.02779748e-02	1.43917842e-02
2.45239085e-02	-1.60939586e-02	1.81411695e-02
2.10690513e-02	-1.20082853e-02	2.19851692e-03
1.87159135e-02	-1.21673898e-02	5.14822203e-03
2.84963588e-02	9.89543385e-03	1.84874450e-02
2.43627151e-02	-2.70683345e-03	6.15660276e-03
1.39897129e-02	-2.69398532e-04	1.07333993e-02
3.74920483e-02	1.12253733e-02	1.43251581e-02
-7.13637160e-03	-2.30813963e-02	7.99263083e-03
3.25215181e-02	-4.90042027e-03	1.52484187e-02
6.21625581e-03	-1.51029986e-02	1.19819959e-02
3.83959853e-04	-1.86081834e-02	1.75498570e-02
-6.21186218e-03	-3.47775138e-02	1.82076575e-02
7.64514160e-03	-2.07646835e-02	1.05081844e-02
1.88995324e-02	-1.52670785e-02	1.78742399e-02
3.07890958e-02	1.22133255e-02	1.08296846e-02
8.88824317e-03	-3.36044047e-02	4.05385502e-03
3.95719293e-02	-6.09237959e-03	6.17260698e-03
-1.63037858e-02	-3.63263543e-02	2.92267286e-03
1.98034389e-02	-2.61274186e-02	1.77956776e-02
6.62304052e-03	-1.02817077e-02	6.64685923e-03
-5.83296707e-05	-3.85857892e-02	9.57932610e-03
3.94600636e-02	6.17239528e-03	6.12798148e-03
1.04415340e-02	-3.70598049e-02	2.02499676e-03
3.21037299e-02	-1.32700184e-02	1.78288945e-02
3.68791206e-02	-3.77528035e-04	8.53434633e-03
2.90449170e-02	-2.74782964e-02	5.72896482e-03
3.96068742e-02	1.07823432e-03	1.80768862e-02
3.00623815e-02	1.80585856e-03	6.57818776e-03
2.45004444e-02	-1.74510353e-02	9.33112825e-03
-2.21606638e-03	-4.04889756e-02	1.80974845e-02
1.51373684e-02	-6.78510128e-03	1.73390023e-02
3.21163516e-02	-4.48142246e-03	5.63091933e-03
5.57103231e-03	-2.43487979e-02	6.98428980e-03
-2.15859626e-04	-2.67026974e-02	1.67324875e-03
2.11363715e-03	-2.29231687e-02	1.80325906e-02
-2.46622281e-03	-3.00800405e-02	3.32422622e-03
3.91485859e-02	-7.39089596e-03	1.89434172e-03
2.74194576e-02	-2.49233652e-02	1.49199128e-02
2.38157486e-02	1.05064193e-02	1.27010057e-02
-1.15579217e-03	-3.62844693e-02	6.30774640e-03
1.96130288e-02	-1.69231250e-03	7.46927101e-03
3.65129961e-02	-2.02246033e-03	5.00819683e-03
2.73740875e-02	-1.48863891e-02	2.28417990e-03
1.08577244e-02	-3.62398516e-02	6.13922830e-03
4.01938867e-02	4.91887287e-03	9.46828151e-03
1.40813083e-02	-2.76018396e-02	7.60762559e-03
1.53992492e-02	-3.69354007e-02	8.57203557e-03
2.59852577e-02	1.04359861e-02	7.03711693e-03
9.92809244e-03	-9.33183739e-03	1.44833319e-02
1.18515283e-02	-2.17338810e-02	1.79104735e-02
1.27786988e-02	-2.11696553e-02	8.24756718e-03
1.15749885e-02	-8.36416881e-03	4.78128116e-03
1.32451351e-02	-6.19323862e-03	9.37923582e-03
2.96077811e-02	6.75488935e-03	1.36464557e-02
2.51908373e-03	-4.01041866e-02	1.69207511e-02
7.40803962e-03	-1.30463752e-02	8.86677913e-03
2.50151265e-02	-7.08333231e-03	1.90873371e-03
2.09637800e-02	1.24755197e-03	1.69679172e-03
1.85886929e-02	-8.20628506e-03	5.92459272e-03
-1.35737689e-02	-3.02710393e-02	1.98294356e-03
1.94024789e-02	-2.09970547e-02	5.06275301e-03
1.94996035e-02	2.74766427e-03	5.31203638e-03
3.66235431e-02	-7.71817697e-04	1.80529790e-02
3.27449842e-02	-7.27336733e-03	1.14034366e-02
2.71002875e-02	9.29269229e-03	1.73362179e-03
3.88883690e-04	-3.17562709e-02	1.41223853e-02
6.31754351e-03	-1.13180079e-02	2.14180797e-03
3.94885837e-02	9.39965516e-03	1.00439013e-02
7.38896850e-04	-1.98121353e-02	7.04257672e-03
1.56200974e-02	-2.78446546e-02	1.06740068e-02
2.62958699e-02	-3.04008734e-02	6.30230271e-03
3.02278725e-02	-1.14188266e-02	1.90966424e-03
1.44681719e-02	-1.82387585e-02	1.54800791e-02
3.87426298e-02	-9.48806690e-03	1.73574137e-02
-4.29764304e-03	-3.79952597e-02	6.28686837e-03
6.76927375e-03	-3.88021675e-02	1.81591977e-02
3.66036692e-02	-8.16283429e-03	4.43779412e-03
3.42464708e-02	-2.06665707e-02	5.38428671e-03
2.33181302e-02	-2.29191884e-02	7.17150736e-03
3.31984877e-02	1.01424491e-02	9.43591233e-03
2.82795055e-02	4.52259988e-03	1.96556539e-03
3.47952552e-02	6.69603354e-03	5.73066946e-03
9.40879218e-03	-3.82940790e-02	4.25582896e-03
3.28669475e-02	-2.31687697e-03	1.83074779e-02
2.06808036e-02	-3.08519941e-02	1.25562574e-02
1.74250535e-02	-1.60026532e-02	9.61677778e-03
-7.33305958e-03	-3.75531687e-02	1.27782163e-02
1.52200101e-02	-3.10235152e-02	3.75315307e-03
3.25934934e-02	-1.85836190e-02	2.23258051e-03
1.44925672e-02	-9.95791259e-03	1.41479491e-02
3.56900052e-02	6.68760735e-03	1.75493479e-02
-4.72925856e-03	-3.28031805e-02	1.59809745e-02
3.37789550e-02	-9.56994115e-03	2.10250440e-03
3.51204354e-02	-8.45207760e-03	1.44254548e-02
3.84223208e-02	9.73547286e-03	5.90048661e-03
3.08260971e-02	-1.39686560e-02	8.54768113e-03
3.83351203e-02	-1.13971160e-02	2.56410019e-03
2.35020941e-02	1.28125013e-02	9.37320481e-03
3.72303885e-02	-1.46289106e-02	2.11385318e-03
1.87212977e-02	-6.00531484e-03	8.30850543e-03
3.84139742e-03	-2.10165540e-02	1.76880231e-02
3.15485423e-02	-1.15608032e-02	1.13549869e-02
1.68599443e-02	-2.03268450e-03	1.73051278e-02
3.26435756e-02	-2.31340653e-02	1.14120012e-02
3.92892553e-02	-1.26814087e-03	1.42138623e-02
2.46787626e-02	-1.04990521e-02	1.13210469e-02
2.66359144e-02	-3.86760805e-03	1.06275663e-02
3.16496992e-02	-2.43597350e-02	5.79329721e-03
1.46121046e-02	-2.17648388e-02	5.28403011e-03
-1.10187481e-03	-4.04616882e-02	1.42301433e-02
2.81241213e-02	-8.13242199e-03	2.25601554e-03
1.55000377e-02	-3.38259387e-02	6.81088256e-03
3.35232683e-02	-2.26130928e-02	2.27919631e-03
-4.05285149e-03	-3.49769192e-02	9.62182287e-03
3.15983175e-02	8.27856551e-03	1.79410307e-02
6.03821897e-03	-2.01643635e-02	1.85048013e-03
2.03403332e-02	-2.16172191e-02	1.26608879e-02
2.22562033e-02	-1.07393365e-02	6.98713131e-03
3.48639698e-02	-1.18659018e-02	5.02444909e-03
3.40957396e-02	1.83038446e-02	1.80493928e-02
1.85824399e-02	-2.24761606e-03	1.09420872e-02
3.44875304e-02	-2.03079458e-02	9.17268039e-03
-6.46570548e-04	-2.10949943e-02	9.19619190e-03
2.79375442e-02	-8.05279194e-03	1.09600319e-02
2.44762598e-02	-2.09744008e-02	1.45638515e-02
2.62608427e-02	-1.57098214e-02	5.43007260e-03
2.80850203e-02	-2.28441833e-02	1.23251468e-02
2.12282187e-02	-3.34258569e-02	1.95519898e-03
3.78773596e-03	-3.66536653e-02	1.77909489e-02
3.05174977e-02	-2.60219789e-02	1.78430469e-02
1.56767878e-02	-6.74207319e-03	5.12940644e-03
3.21582389e-02	1.42478438e-02	1.41735109e-02
-7.54436803e-05	-3.11173147e-02	5.56129431e-03
2.12783731e-02	-1.77109336e-02	1.80429521e-02
2.75108983e-02	1.31191997e-02	8.34155833e-03
7.81837622e-03	-2.74999333e-02	8.99324698e-03
3.07418071e-02	-2.61063679e-02	9.56812083e-03
3.48044123e-02	-1.18546889e-02	1.33889639e-02
2.26748162e-02	-3.34587381e-02	1.35167537e-02
2.80312993e-02	-8.28208731e-03	1.80554471e-02
3.03976931e-02	-2.62097078e-02	1.81780565e-03
2.34281397e-02	9.31931881e-03	1.77690874e-02
3.67698653e-03	-2.44571636e-02	1.37421807e-02
1.67002227e-02	5.07550039e-03	1.11439968e-02
3.47493853e-02	1.70571623e-02	7.85206266e-03
1.03130463e-02	-2.19992239e-02	5.79793950e-03
2.72535502e-02	2.52923325e-03	1.81621191e-02
5.35730625e-03	-2.85153821e-02	1.09546010e-02
2.15604182e-02	-8.69907641e-03	1.22499861e-02
2.44042704e-02	-1.33467145e-02	9.64089509e-03
1.18994973e-02	8.45600544e-04	1.77636585e-02
3.98832280e-02	4.63124876e-04	1.07903360e-02
3.48048942e-02	-6.17119355e-03	7.53735251e-03
2.53370420e-02	6.65104956e-03	9.01294042e-03
7.40749351e-03	-3.88463169e-02	1.16682912e-02
2.29942520e-02	1.28363574e-02	1.59541426e-02
3.05152226e-02	-7.30733698e-03	8.12721036e-03
2.84500457e-02	-4.08174781e-03	1.46767415e-02
3.99736988e-02	6.12368170e-03	1.71966566e-02
1.23398406e-02	-3.17555685e-02	1.51520339e-02
3.31460597e-02	2.06023520e-03	1.43452959e-02
-1.04659729e-02	-3.58454001e-02	1.45294809e-02
1.77366943e-02	4.91747783e-03	2.21517991e-03
-5.18361095e-03	-2.55799512e-02	1.27782791e-02
1.47623373e-02	-4.67170269e-03	1.30329486e-02
1.81133450e-02	-2.97844506e-02	1.50266885e-02
8.65997226e-03	-2.85196432e-02	1.91371503e-03
[...]
POINT_DATA 469
SCALARS Radius double 1
LOOKUP_TABLE default
2.00000000e-03
2.00000000e-03
2.00000000e-03
2.00000000e-03
2.00000000e-03
2.00000000e-03
2.00000000e-03
2.00000000e-03
2.00000000e-03
2.00000000e-03
2.00000000e-03
2.00000000e-03
2.00000000e-03
2.00000000e-03
2.00000000e-03
2.00000000e-03
2.00000000e-03
2.00000000e-03
2.00000000e-03
2.00000000e-03
2.00000000e-03
2.00000000e-03
2.00000000e-03
2.00000000e-03
2.00000000e-03
2.00000000e-03
2.00000000e-03
2.00000000e-03
2.00000000e-03
2.00000000e-03
2.00000000e-03
2.00000000e-03
2.00000000e-03
2.00000000e-03
2.00000000e-03
2.00000000e-03
2.00000000e-03
2.00000000e-03
2.00000000e-03
2.00000000e-03
2.00000000e-03
2.00000000e-03
2.00000000e-03
2.00000000e-03
2.00000000e-03
2.00000000e-03
2.00000000e-03
2.00000000e-03
2.00000000e-03
2.00000000e-03
2.00000000e-03
2.00000000e-03
2.00000000e-03
2.00000000e-03
2.00000000e-03
2.00000000e-03
2.00000000e-03
2.00000000e-03
2.00000000e-03
2.00000000e-03
2.00000000e-03
2.00000000e-03
2.00000000e-03
2.00000000e-03
2.00000000e-03
2.00000000e-03
2.00000000e-03
2.00000000e-03
2.00000000e-03
2.00000000e-03
2.00000000e-03
2.00000000e-03
2.00000000e-03
2.00000000e-03
2.00000000e-03
2.00000000e-03
2.00000000e-03
2.00000000e-03
2.00000000e-03
2.00000000e-03
2.00000000e-03
2.00000000e-03
2.00000000e-03
2.00000000e-03
2.00000000e-03
2.00000000e-03
2.00000000e-03
2.00000000e-03
2.00000000e-03
2.00000000e-03
2.00000000e-03
2.00000000e-03
2.00000000e-03
2.00000000e-03
2.00000000e-03
2.00000000e-03
2.00000000e-03
2.00000000e-03
2.00000000e-03
2.00000000e-03
2.00000000e-03
2.00000000e-03
2.00000000e-03
2.00000000e-03
2.00000000e-03
2.00000000e-03
2.00000000e-03
2.00000000e-03
2.00000000e-03
2.00000000e-03
2.00000000e-03
2.00000000e-03
2.00000000e-03
2.00000000e-03
2.00000000e-03
2.00000000e-03
2.00000000e-03
2.00000000e-03
2.00000000e-03
2.00000000e-03
2.00000000e-03
2.00000000e-03
2.00000000e-03
2.00000000e-03
2.00000000e-03
2.00000000e-03
2.00000000e-03
2.00000000e-03
2.00000000e-03
2.00000000e-03
2.00000000e-03
2.00000000e-03
2.00000000e-03
2.00000000e-03
2.00000000e-03
2.00000000e-03
2.00000000e-03
2.00000000e-03
2.00000000e-03
2.00000000e-03
2.00000000e-03
2.00000000e-03
2.00000000e-03
2.00000000e-03
2.00000000e-03
2.00000000e-03
2.00000000e-03
2.00000000e-03
2.00000000e-03
2.00000000e-03
2.00000000e-03
2.00000000e-03
2.00000000e-03
2.00000000e-03
2.00000000e-03
2.00000000e-03
2.00000000e-03
2.00000000e-03
2.00000000e-03
2.00000000e-03
2.00000000e-03
2.00000000e-03
2.00000000e-03
2.00000000e-03
2.00000000e-03
2.00000000e-03
2.00000000e-03
2.00000000e-03
2.00000000e-03
2.00000000e-03
2.00000000e-03
2.00000000e-03
2.00000000e-03
2.00000000e-03
2.00000000e-03
2.00000000e-03
2.00000000e-03
2.00000000e-03
2.00000000e-03
2.00000000e-03
2.00000000e-03
2.00000000e-03
2.00000000e-03
2.00000000e-03
2.00000000e-03
2.00000000e-03
2.00000000e-03
2.00000000e-03
2.00000000e-03
2.00000000e-03
2.00000000e-03
2.00000000e-03
2.00000000e-03
2.00000000e-03
2.00000000e-03
2.00000000e-03
2.00000000e-03
2.00000000e-03
2.00000000e-03
2.00000000e-03
2.00000000e-03
2.00000000e-03
2.00000000e-03
2.00000000e-03
2.00000000e-03
2.00000000e-03
2.00000000e-03
2.00000000e-03
2.00000000e-03
2.00000000e-03
2.00000000e-03
2.00000000e-03
2.00000000e-03
2.00000000e-03
2.00000000e-03
2.00000000e-03
2.00000000e-03
2.00000000e-03
2.00000000e-03
2.00000000e-03
2.00000000e-03
2.00000000e-03
2.00000000e-03
2.00000000e-03
2.00000000e-03
2.00000000e-03
2.00000000e-03
2.00000000e-03
2.00000000e-03
2.00000000e-03
2.00000000e-03
2.00000000e-03
2.00000000e-03
2.00000000e-03
2.00000000e-03
2.00000000e-03
2.00000000e-03
2.00000000e-03
2.00000000e-03
2.00000000e-03
2.00000000e-03
2.00000000e-03
2.00000000e-03
2.00000000e-03
2.00000000e-03
2.00000000e-03
2.00000000e-03
2.00000000e-03
2.00000000e-03
2.00000000e-03
2.00000000e-03
2.00000000e-03
2.00000000e-03
2.00000000e-03
2.00000000e-03
2.00000000e-03
2.00000000e-03
2.00000000e-03
2.00000000e-03
2.00000000e-03
2.00000000e-03
2.00000000e-03
2.00000000e-03
2.00000000e-03
2.00000000e-03
2.00000000e-03
2.00000000e-03
2.00000000e-03
2.00000000e-03
2.00000000e-03
2.00000000e-03
2.00000000e-03
2.00000000e-03
2.00000000e-03
2.00000000e-03
2.00000000e-03
2.00000000e-03
2.00000000e-03
2.00000000e-03
2.00000000e-03
2.00000000e-03
2.00000000e-03
2.00000000e-03
2.00000000e-03
2.00000000e-03
2.00000000e-03
2.00000000e-03
2.00000000e-03
2.00000000e-03
2.00000000e-03
2.00000000e-03
2.00000000e-03
2.00000000e-03
2.00000000e-03
2.00000000e-03
2.00000000e-03
2.00000000e-03
2.00000000e-03
2.00000000e-03
2.00000000e-03
2.00000000e-03
2.00000000e-03
2.00000000e-03
2.00000000e-03
2.00000000e-03
2.00000000e-03
2.00000000e-03
2.00000000e-03
2.00000000e-03
2.00000000e-03
2.00000000e-03
2.00000000e-03
2.00000000e-03
2.00000000e-03
2.00000000e-03
2.00000000e-03
2.00000000e-03
2.00000000e-03
2.00000000e-03
2.00000000e-03
2.00000000e-03
2.00000000e-03
2.00000000e-03
2.00000000e-03
2.00000000e-03
2.00000000e-03
2.00000000e-03
2.00000000e-03
2.00000000e-03
2.00000000e-03
2.00000000e-03
2.00000000e-03
2.00000000e-03
2.00000000e-03
2.00000000e-03
2.00000000e-03
2.00000000e-03
2.00000000e-03
2.00000000e-03
2.00000000e-03
2.00000000e-03
2.00000000e-03
2.00000000e-03
2.00000000e-03
2.00000000e-03
2.00000000e-03
2.00000000e-03
2.00000000e-03
2.00000000e-03
2.00000000e-03
2.00000000e-03
2.00000000e-03
2.00000000e-03
2.00000000e-03
2.00000000e-03
2.00000000e-03
2.00000000e-03
2.00000000e-03
2.00000000e-03
2.00000000e-03
2.00000000e-03
2.00000000e-03
2.00000000e-03
2.00000000e-03
2.00000000e-03
2.00000000e-03
2.00000000e-03
2.00000000e-03
2.00000000e-03
2.00000000e-03
2.00000000e-03
2.00000000e-03
2.00000000e-03
2.00000000e-03
2.00000000e-03
2.00000000e-03
2.00000000e-03
2.00000000e-03
2.00000000e-03
2.00000000e-03
2.00000000e-03
2.00000000e-03
2.00000000e-03
2.00000000e-03
2.00000000e-03
2.00000000e-03
2.00000000e-03
2.00000000e-03
2.00000000e-03
2.00000000e-03
2.00000000e-03
2.00000000e-03
2.00000000e-03
2.00000000e-03
2.00000000e-03
2.00000000e-03
2.00000000e-03
2.00000000e-03
2.00000000e-03
2.00000000e-03
2.00000000e-03
2.00000000e-03
2.00000000e-03
2.00000000e-03
2.00000000e-03
2.00000000e-03
2.00000000e-03
2.00000000e-03
2.00000000e-03
2.00000000e-03
2.00000000e-03
2.00000000e-03
2.00000000e-03
2.00000000e-03
2.00000000e-03
2.00000000e-03
2.00000000e-03
2.00000000e-03
2.00000000e-03
2.00000000e-03
2.00000000e-03
2.00000000e-03
2.00000000e-03
2.00000000e-03
2.00000000e-03
2.00000000e-03
2.00000000e-03
2.00000000e-03
2.00000000e-03
2.00000000e-03
2.00000000e-03
2.00000000e-03
2.00000000e-03
2.00000000e-03
2.00000000e-03
2.00000000e-03
2.00000000e-03
2.00000000e-03
2.00000000e-03
2.00000000e-03
2.00000000e-03
2.00000000e-03
2.00000000e-03
2.00000000e-03
2.00000000e-03
2.00000000e-03
2.00000000e-03
2.00000000e-03
2.00000000e-03
2.00000000e-03
2.00000000e-03
2.00000000e-03
2.00000000e-03
2.00000000e-03
2.00000000e-03
2.00000000e-03
2.00000000e-03
2.00000000e-03
2.00000000e-03
2.00000000e-03
2.00000000e-03
2.00000000e-03
2.00000000e-03
2.00000000e-03
2.00000000e-03
2.00000000e-03
2.00000000e-03
2.00000000e-03
2.00000000e-03
