# vtk DataFile Version 2.0
Particle data
ASCII
DATASET POLYDATA
POINTS 469 double
3.78422501e-02	4.86225802e-03	1.51346727e-02
2.70632845e-02	3.45832468e-03	1.31965628e-02
3.38855288e-02	-2.08368969e-02	1.47958989e-02
7.09331556e-03	-2.21240953e-02	1.11481120e-02
2.60000370e-02	6.30944424e-03	3.46771488e-03
3.34868173e-02	-4.25494358e-03	2.33563449e-03
3.72150649e-02	-8.32745022e-03	1.71573716e-02
9.33067903e-03	-2.63881707e-02	1.72922501e-02
2.64665489e-02	-2.81617082e-02	1.68459140e-02
-5.64454260e-03	-3.98733980e-02	1.52246035e-02
3.45332104e-02	5.42866076e-03	7.95953926e-03
2.99618931e-02	-9.80787290e-04	1.69620852e-02
1.27527510e-02	-3.68933197e-02	8.07626913e-03
2.51925112e-02	6.58484527e-04	5.65529315e-03
3.16006519e-02	1.26609050e-02	1.23961538e-02
-3.69642222e-03	-3.18114620e-02	1.14995132e-02
2.05533969e-02	-8.05357061e-03	8.72577840e-03
3.21908205e-02	-4.31747905e-03	1.85005380e-03
1.98668341e-02	-1.35628623e-02	1.48507140e-02
3.75746563e-02	-2.01237931e-03	5.16440950e-03
3.25329204e-02	9.69559044e-03	1.88104961e-03
2.88866362e-02	-2.19772076e-02	1.80473631e-02
-6.14207409e-03	-2.07882059e-02	2.01331898e-03
3.33216866e-02	-1.60781488e-02	5.37223681e-03
3.34954009e-02	-1.15397006e-02	5.23400898e-03
-1.08023616e-02	-3.93288119e-02	1.41092792e-02
3.25496336e-02	1.46153439e-02	1.61441436e-02
3.36870024e-02	-1.24155539e-02	1.77055043e-02
-7.44101115e-04	-2.45462962e-02	4.16120979e-03
1.22506798e-02	-3.22582193e-02	1.82020127e-02
2.98029413e-02	1.54850714e-03	8.83679471e-03
2.61816922e-02	-2.85584849e-02	9.00889096e-03
2.90715328e-02	-5.59481230e-03	8.04369414e-03
2.46764980e-02	-1.66125697e-02	1.48321407e-02
9.41171754e-03	-3.63930536e-02	8.67136127e-03
2.69681344e-02	-9.77851505e-03	1.47713588e-02
4.06900682e-02	1.24621969e-03	1.03150329e-02
2.19338732e-02	1.08835005e-02	7.76948305e-03
3.20383150e-02	-5.56830637e-03	1.38245011e-02
3.22751606e-02	2.45357609e-03	5.16976495e-03
1.04925967e-02	-1.02851671e-02	1.41711822e-02
3.14726139e-02	-1.51316626e-02	1.57990600e-02
5.14261270e-03	-3.45348833e-02	1.87423085e-03
3.61220365e-02	7.34527093e-03	1.72696607e-02
2.12124147e-02	-1.95780330e-02	1.38019963e-02
3.33094070e-02	1.04846077e-02	1.17461432e-02
2.30458337e-02	-2.86696624e-03	1.58346020e-02
2.67110868e-02	1.11384591e-02	1.59214917e-02
2.06469748e-02	-8.48295432e-03	1.38643344e-02
3.91137141e-02	5.89441609e-03	1.73432571e-02
4.87415045e-03	-2.61290239e-02	2.20901868e-03
1.71520818e-02	-6.61163895e-03	1.42157225e-02
2.67198557e-02	1.36871454e-02	1.28159443e-02
1.24226391e-02	-2.23221631e-02	1.80305821e-03
7.00906714e-03	-2.98772595e-02	5.61460097e-03
-8.28219914e-03	-2.71273294e-02	1.73979931e-02
-3.15019233e-04	-3.37035282e-02	5.98029706e-03
2.35003014e-02	9.21799360e-03	1.85653369e-02
1.65440172e-02	-2.81935847e-02	1.42751587e-02
1.27603180e-02	-3.14566727e-02	1.45161949e-02
1.70986136e-02	-3.22302795e-02	1.16762842e-02
2.61674846e-02	-1.66361744e-02	1.24414783e-02
1.62321535e-02	-1.59671551e-02	1.78247245e-02
-5.92571122e-03	-2.95516320e-02	1.19810864e-02
3.02093367e-02	-1.42976504e-02	3.96504136e-03
2.96188947e-02	1.13594053e-02	7.37710935e-03
-1.25624730e-02	-4.07243296e-02	5.04675952e-03
3.01818486e-02	-8.16817023e-03	1.64560998e-02
7.30773510e-03	-3.26090877e-02	6.70413172e-03
1.74236443e-02	-3.10855593e-02	2.56335051e-03
7.83519652e-03	-1.50082089e-02	1.09533050e-02
2.47790305e-02	-2.79640700e-02	5.98051088e-03
4.11748354e-02	7.62840585e-03	1.73246237e-02
3.62889488e-02	1.60707471e-03	1.41199044e-02
3.18918939e-02	-2.22803330e-02	3.68234242e-03
6.87529947e-03	-1.23611613e-02	1.76400871e-02
1.56740196e-02	-3.15410002e-02	5.93273358e-03
3.88003503e-02	-6.78928470e-03	4.24166170e-03
1.35975594e-02	-3.86318066e-02	1.88720487e-02
-2.32454488e-03	-2.90661821e-02	1.48355379e-02
2.21768712e-02	8.37661302e-03	9.41108049e-03
2.08979342e-02	-3.55069860e-03	9.97940534e-03
1.83061601e-02	-2.27167254e-02	7.39603917e-03
2.29519832e-02	-1.83159758e-02	1.78650945e-02
2.04814624e-02	-2.94802163e-02	3.79308688e-03
3.64666594e-02	7.85498760e-03	1.90547645e-03
2.13565167e-02	2.89961562e-03	1.77306792e-02
-1.39976612e-02	-2.77361770e-02	8.16356975e-03
2.65151374e-02	-1.86941628e-02	6.18264929e-03
1.10131947e-02	-2.71428674e-02	5.97746920e-03
3.43542089e-02	1.43493915e-02	1.35459638e-02
3.50557945e-02	1.07175841e-02	3.88735315e-03
3.16063295e-02	-2.46228470e-02	9.63525584e-03
3.46706362e-02	1.53037184e-02	4.05284302e-03
3.05593819e-02	-8.69847080e-03	1.08674831e-02
2.35564386e-02	-3.14168451e-02	1.74661752e-02
-2.04053890e-03	-2.05831568e-02	9.11285441e-03
2.72363092e-03	-3.68142175e-02	1.40349633e-02
2.84961548e-02	-1.72351102e-02	1.02651807e-02
3.14531316e-02	-4.46159993e-03	1.05492592e-02
7.76142763e-03	-3.36568707e-02	1.19037373e-02
1.48102769e-02	-1.64890476e-02	1.90448508e-02
2.42549812e-03	-1.68093754e-02	1.42658901e-02
2.38565977e-02	-2.55990019e-02	1.51667697e-02
1.28304504e-02	-3.49053224e-02	1.57489903e-02
3.90010966e-02	1.27891831e-02	1.26436854e-02
2.39868479e-02	-1.47583557e-02	8.37227482e-03
1.44484794e-02	-3.06878895e-02	1.06010739e-02
6.16012485e-03	-2.99415501e-02	2.00918147e-03
3.12877252e-02	6.42122092e-03	9.42317580e-03
-2.78212683e-03	-3.68310226e-02	4.20388618e-03
2.80740928e-02	1.22711345e-02	1.82119264e-02
1.52701334e-02	6.57443914e-03	1.76118338e-02
1.33551292e-02	-2.06542687e-02	7.00235380e-03
1.63461670e-02	-3.50661124e-02	1.81758705e-02
7.71043176e-03	-3.61430239e-02	1.68181886e-03
3.52922355e-02	1.25263763e-02	1.51965532e-02
-7.86221716e-03	-3.27153770e-02	3.18202743e-03
1.72840744e-02	-5.35840923e-03	5.00533786e-03
3.79805464e-02	-1.21547291e-02	2.26684507e-03
2.91837767e-02	1.63029166e-02	2.33580159e-03
2.57817118e-02	-2.09427036e-02	1.13648843e-02
3.83011772e-02	-4.40795336e-03	1.67737937e-02
1.32361728e-02	-3.35957956e-02	1.02797611e-03
3.10731984e-02	-2.44017107e-02	1.80150053e-02
3.81644240e-02	6.93162217e-03	1.42277318e-02
3.60767468e-02	-9.00012118e-03	5.00588348e-03
3.46539323e-02	-6.62565458e-03	1.28320187e-02
-8.35625486e-03	-2.98762633e-02	1.40950707e-02
1.48063901e-02	4.26862091e-03	2.12984039e-03
-4.48155500e-03	-2.73577534e-02	1.98580004e-03
2.26525670e-02	-3.00091962e-02	9.81774144e-03
2.67691181e-02	9.97653122e-03	1.81707025e-02
3.58776887e-02	-1.21221144e-02	7.72541400e-03
2.64940404e-02	-5.39284260e-03	6.34629085e-03
9.81126276e-03	-4.11069580e-02	1.36062136e-02
2.72362289e-02	-9.01022947e-04	7.07801218e-03
3.86117127e-02	-7.34313524e-03	3.76956568e-03
2.19481874e-02	-3.13138013e-02	1.23582141e-02
2.31838541e-02	-9.92450758e-03	1.83562654e-02
8.40577877e-03	-3.73154692e-02	1.85993553e-02
3.84594474e-02	5.35917330e-03	1.02812484e-02
2.06687958e-02	-4.74041848e-03	1.43473282e-02
3.28833516e-02	2.00347018e-02	3.61395553e-03
3.50803195e-02	4.48089526e-04	6.88829034e-03
3.76798062e-02	-9.57782442e-05	1.99756362e-03
-7.69726093e-03	-2.58925128e-02	3.10059868e-03
3.09788261e-02	-1.21724549e-03	1.91656722e-03
2.34753838e-02	-7.79460676e-03	1.04274875e-02
2.20218609e-03	-4.09598263e-02	1.85776069e-02
1.98541444e-02	6.27576946e-03	1.78104632e-02
2.26672047e-02	-1.98956686e-02	8.53780506e-03
3.24378772e-02	-6.94686322e-03	9.96589109e-03
2.16948739e-02	3.16255326e-03	1.41058670e-02
8.12726701e-03	-2.15282400e-02	2.55915892e-03
-1.20187693e-02	-3.21162832e-02	1.41615940e-02
3.52693840e-02	-9.85023732e-03	2.05268397e-03
1.27623928e-02	-1.12179337e-02	3.94006140e-03
1.66321948e-02	-3.78802576e-02	1.83023446e-02
2.81407430e-02	-8.29607127e-04	4.16250675e-03
3.51398236e-02	-1.11931774e-02	8.97198703e-03
3.87661240e-02	-3.44811032e-03	2.76855297e-03
1.63879765e-02	-2.87045308e-02	7.08721831e-03
4.11555615e-03	-8.17134678e-03	1.88349312e-02
1.91843277e-02	-1.90250518e-02	5.64866158e-03
3.00682410e-02	4.03587294e-04	1.34710836e-02
8.84531291e-03	-2.68327150e-02	8.40234090e-03
3.89460707e-02	-4.42662962e-03	9.85781830e-03
-1.36871645e-03	-3.11681575e-02	1.74300934e-02
-6.63423106e-03	-3.14876519e-02	7.06900193e-03
3.42477215e-02	-1.62775534e-02	1.70586649e-02
8.41521743e-04	-4.02876100e-02	3.11694705e-03
1.91681419e-02	1.04331021e-02	1.85520230e-02
2.91035893e-02	4.25312948e-03	1.72323999e-02
3.97135584e-02	1.38482049e-03	1.78195583e-02
3.36649802e-02	-2.23884850e-02	9.17258343e-03
2.75742202e-02	-1.21480381e-02	1.57840405e-03
2.26352763e-02	-2.92556925e-02	9.40611845e-03
2.98085614e-02	-2.20692067e-02	1.54303327e-02
2.76670014e-02	-2.49560714e-02	5.10639387e-03
1.28102322e-03	-2.21919552e-02	6.33029696e-03
2.84864573e-02	-1.31222162e-02	6.93590175e-03
3.85207024e-02	1.43842506e-02	1.79146494e-02
1.36735949e-02	3.21797174e-03	1.15476969e-02
2.79997910e-02	-1.25322288e-02	1.75449189e-02
3.41038766e-02	-1.10319151e-02	1.04620575e-02
1.67039515e-02	-6.57194147e-03	1.63402435e-03
3.34897156e-02	-1.23682821e-02	1.12492057e-02
3.42500591e-02	3.06138400e-04	1.79849042e-02
3.36819904e-02	-8.44490247e-03	2.50198439e-03
8.18158835e-03	-2.92253384e-02	9.86997356e-03
1.70478954e-02	-1.69631834e-02	1.81298450e-02
-1.34225294e-03	-1.65042131e-02	1.12787312e-02
3.62727445e-02	1.90758393e-02	1.73944943e-02
2.04577225e-02	7.46014587e-03	2.78239797e-03
2.03863314e-03	-2.79637775e-02	1.14910399e-02
2.64802259e-02	-2.08005944e-02	1.40084261e-02
2.27289188e-02	-1.68615148e-02	9.51358832e-03
1.32958558e-02	-1.29839942e-02	8.73004549e-03
-1.64590504e-03	-3.70980915e-02	1.41618719e-02
2.80901551e-02	1.10547200e-02	1.47565486e-02
1.57046778e-02	7.43691347e-04	1.32312154e-02
1.46580619e-03	-1.94921147e-02	1.84689254e-02
2.82267576e-02	-2.13657982e-02	1.34944618e-02
3.37097560e-03	-3.72240118e-02	1.79314860e-02
1.13721456e-02	-6.14371280e-03	4.82226448e-03
-1.23816891e-03	-1.90665480e-02	1.78025853e-02
2.71910676e-02	1.08356839e-02	4.06927607e-03
2.81038346e-02	-1.64617085e-03	1.48693300e-02
1.18900518e-02	-1.22232468e-02	1.47066605e-02
9.72458361e-03	-3.68761009e-02	1.49059753e-02
9.82466235e-03	-2.74379657e-02	2.17334182e-03
5.13801709e-03	-4.18748574e-02	1.56992284e-02
2.28848736e-02	-2.42465165e-02	1.69194712e-02
1.98338094e-02	-1.28697614e-02	1.82810676e-02
2.69552037e-02	-3.66055561e-03	2.65417060e-03
[...]
POINT_DATA 469
SCALARS Radius double 1
LOOKUP_TABLE default
2.00000000e-03
2.00000000e-03
2.00000000e-03
2.00000000e-03
2.00000000e-03
2.00000000e-03
2.00000000e-03
2.00000000e-03
2.00000000e-03
2.00000000e-03
2.00000000e-03
2.00000000e-03
2.00000000e-03
2.00000000e-03
2.00000000e-03
2.00000000e-03
2.00000000e-03
2.00000000e-03
2.00000000e-03
2.00000000e-03
2.00000000e-03
2.00000000e-03
2.00000000e-03
2.00000000e-03
2.00000000e-03
2.00000000e-03
2.00000000e-03
2.00000000e-03
2.00000000e-03
2.00000000e-03
2.00000000e-03
2.00000000e-03
2.00000000e-03
2.00000000e-03
2.00000000e-03
2.00000000e-03
2.00000000e-03
2.00000000e-03
2.00000000e-03
2.00000000e-03
2.00000000e-03
2.00000000e-03
2.00000000e-03
2.00000000e-03
2.00000000e-03
2.00000000e-03
2.00000000e-03
2.00000000e-03
2.00000000e-03
2.00000000e-03
2.00000000e-03
2.00000000e-03
2.00000000e-03
2.00000000e-03
2.00000000e-03
2.00000000e-03
2.00000000e-03
2.00000000e-03
2.00000000e-03
2.00000000e-03
2.00000000e-03
2.00000000e-03
2.00000000e-03
2.00000000e-03
2.00000000e-03
2.00000000e-03
2.00000000e-03
2.00000000e-03
2.00000000e-03
2.00000000e-03
2.00000000e-03
2.00000000e-03
2.00000000e-03
2.00000000e-03
2.00000000e-03
2.00000000e-03
2.00000000e-03
2.00000000e-03
2.00000000e-03
2.00000000e-03
2.00000000e-03
2.00000000e-03
2.00000000e-03
2.00000000e-03
2.00000000e-03
2.00000000e-03
2.00000000e-03
2.00000000e-03
2.00000000e-03
2.00000000e-03
2.00000000e-03
2.00000000e-03
2.00000000e-03
2.00000000e-03
2.00000000e-03
2.00000000e-03
2.00000000e-03
2.00000000e-03
2.00000000e-03
2.00000000e-03
2.00000000e-03
2.00000000e-03
2.00000000e-03
2.00000000e-03
2.00000000e-03
2.00000000e-03
2.00000000e-03
2.00000000e-03
2.00000000e-03
2.00000000e-03
2.00000000e-03
2.00000000e-03
2.00000000e-03
2.00000000e-03
2.00000000e-03
2.00000000e-03
2.00000000e-03
2.00000000e-03
2.00000000e-03
2.00000000e-03
2.00000000e-03
2.00000000e-03
2.00000000e-03
2.00000000e-03
2.00000000e-03
2.00000000e-03
2.00000000e-03
2.00000000e-03
2.00000000e-03
2.00000000e-03
2.00000000e-03
2.00000000e-03
2.00000000e-03
2.00000000e-03
2.00000000e-03
2.00000000e-03
2.00000000e-03
2.00000000e-03
2.00000000e-03
2.00000000e-03
2.00000000e-03
2.00000000e-03
2.00000000e-03
2.00000000e-03
2.00000000e-03
2.00000000e-03
2.00000000e-03
2.00000000e-03
2.00000000e-03
2.00000000e-03
2.00000000e-03
2.00000000e-03
2.00000000e-03
2.00000000e-03
2.00000000e-03
2.00000000e-03
2.00000000e-03
2.00000000e-03
2.00000000e-03
2.00000000e-03
2.00000000e-03
2.00000000e-03
2.00000000e-03
2.00000000e-03
2.00000000e-03
2.00000000e-03
2.00000000e-03
2.00000000e-03
2.00000000e-03
2.00000000e-03
2.00000000e-03
2.00000000e-03
2.00000000e-03
2.00000000e-03
2.00000000e-03
2.00000000e-03
2.00000000e-03
2.00000000e-03
2.00000000e-03
2.00000000e-03
2.00000000e-03
2.00000000e-03
2.00000000e-03
2.00000000e-03
2.00000000e-03
2.00000000e-03
2.00000000e-03
2.00000000e-03
2.00000000e-03
2.00000000e-03
2.00000000e-03
2.00000000e-03
2.00000000e-03
2.00000000e-03
2.00000000e-03
2.00000000e-03
2.00000000e-03
2.00000000e-03
2.00000000e-03
2.00000000e-03
2.00000000e-03
2.00000000e-03
2.00000000e-03
2.00000000e-03
2.00000000e-03
2.00000000e-03
2.00000000e-03
2.00000000e-03
2.00000000e-03
2.00000000e-03
2.00000000e-03
2.00000000e-03
2.00000000e-03
2.00000000e-03
2.00000000e-03
2.00000000e-03
2.00000000e-03
2.00000000e-03
2.00000000e-03
2.00000000e-03
2.00000000e-03
2.00000000e-03
2.00000000e-03
2.00000000e-03
2.00000000e-03
2.00000000e-03
2.00000000e-03
2.00000000e-03
2.00000000e-03
2.00000000e-03
2.00000000e-03
2.00000000e-03
2.00000000e-03
2.00000000e-03
2.00000000e-03
2.00000000e-03
2.00000000e-03
2.00000000e-03
2.00000000e-03
2.00000000e-03
2.00000000e-03
2.00000000e-03
2.00000000e-03
2.00000000e-03
2.00000000e-03
2.00000000e-03
2.00000000e-03
2.00000000e-03
2.00000000e-03
2.00000000e-03
2.00000000e-03
2.00000000e-03
2.00000000e-03
2.00000000e-03
2.00000000e-03
2.00000000e-03
2.00000000e-03
2.00000000e-03
2.00000000e-03
2.00000000e-03
2.00000000e-03
2.00000000e-03
2.00000000e-03
2.00000000e-03
2.00000000e-03
2.00000000e-03
2.00000000e-03
2.00000000e-03
2.00000000e-03
2.00000000e-03
2.00000000e-03
2.00000000e-03
2.00000000e-03
2.00000000e-03
2.00000000e-03
2.00000000e-03
2.00000000e-03
2.00000000e-03
2.00000000e-03
2.00000000e-03
2.00000000e-03
2.00000000e-03
2.00000000e-03
2.00000000e-03
2.00000000e-03
2.00000000e-03
2.00000000e-03
2.00000000e-03
2.00000000e-03
2.00000000e-03
2.00000000e-03
2.00000000e-03
2.00000000e-03
2.00000000e-03
2.00000000e-03
2.00000000e-03
2.00000000e-03
2.00000000e-03
2.00000000e-03
2.00000000e-03
2.00000000e-03
2.00000000e-03
2.00000000e-03
2.00000000e-03
2.00000000e-03
2.00000000e-03
2.00000000e-03
2.00000000e-03
2.00000000e-03
2.00000000e-03
2.00000000e-03
2.00000000e-03
2.00000000e-03
2.00000000e-03
2.00000000e-03
2.00000000e-03
2.00000000e-03
2.00000000e-03
2.00000000e-03
2.00000000e-03
2.00000000e-03
2.00000000e-03
2.00000000e-03
2.00000000e-03
2.00000000e-03
2.00000000e-03
2.00000000e-03
2.00000000e-03
2.00000000e-03
2.00000000e-03
2.00000000e-03
2.00000000e-03
2.00000000e-03
2.00000000e-03
2.00000000e-03
2.00000000e-03
2.00000000e-03
2.00000000e-03
2.00000000e-03
2.00000000e-03
2.00000000e-03
2.00000000e-03
2.00000000e-03
2.00000000e-03
2.00000000e-03
2.00000000e-03
2.00000000e-03
2.00000000e-03
2.00000000e-03
2.00000000e-03
2.00000000e-03
2.00000000e-03
2.00000000e-03
2.00000000e-03
2.00000000e-03
2.00000000e-03
2.00000000e-03
2.00000000e-03
2.00000000e-03
2.00000000e-03
2.00000000e-03
2.00000000e-03
2.00000000e-03
2.00000000e-03
2.00000000e-03
2.00000000e-03
2.00000000e-03
2.00000000e-03
2.00000000e-03
2.00000000e-03
2.00000000e-03
2.00000000e-03
2.00000000e-03
2.00000000e-03
2.00000000e-03
2.00000000e-03
2.00000000e-03
2.00000000e-03
2.00000000e-03
2.00000000e-03
2.00000000e-03
2.00000000e-03
2.00000000e-03
2.00000000e-03
2.00000000e-03
2.00000000e-03
2.00000000e-03
2.00000000e-03
2.00000000e-03
2.00000000e-03
2.00000000e-03
2.00000000e-03
2.00000000e-03
2.00000000e-03
2.00000000e-03
2.00000000e-03
2.00000000e-03
2.00000000e-03
2.00000000e-03
2.00000000e-03
2.00000000e-03
2.00000000e-03
2.00000000e-03
2.00000000e-03
2.00000000e-03
2.00000000e-03
2.00000000e-03
2.00000000e-03
2.00000000e-03
2.00000000e-03
2.00000000e-03
2.00000000e-03
2.00000000e-03
2.00000000e-03
2.00000000e-03
2.00000000e-03
2.00000000e-03
2.00000000e-03
2.00000000e-03
2.00000000e-03
2.00000000e-03
2.00000000e-03
2.00000000e-03
2.00000000e-03
2.00000000e-03
2.00000000e-03
2.00000000e-03
2.00000000e-03
2.00000000e-03
2.00000000e-03
2.00000000e-03
2.00000000e-03
2.00000000e-03
2.00000000e-03
2.00000000e-03
2.00000000e-03
2.00000000e-03
2.00000000e-03
2.00000000e-03
2.00000000e-03
2.00000000e-03
2.00000000e-03
2.00000000e-03
2.00000000e-03
2.00000000e-03
2.00000000e-03
2.00000000e-03
2.00000000e-03
2.00000000e-03
2.00000000e-03
2.00000000e-03
2.00000000e-03
2.00000000e-03
2.00000000e-03
2.00000000e-03
2.00000000e-03
2.00000000e-03
2.00000000e-03
2.00000000e-03
2.00000000e-03
2.00000000e-03
2.00000000e-03
2.00000000e-03
2.00000000e-03
2.00000000e-03
2.00000000e-03
2.00000000e-03
2.00000000e-03
2.00000000e-03
