# vtk DataFile Version 2.0
Particle data
ASCII
DATASET POLYDATA
POINTS 469 double
-5.43987291e-03	-3.42598439e-02	1.46092869e-02
9.30612553e-03	-1.62369207e-02	1.27106126e-02
2.10087223e-02	7.71380674e-04	6.47626100e-03
2.62789745e-02	-1.99518849e-02	1.04858269e-02
8.30266058e-03	-2.14538238e-02	2.26143345e-03
-7.50914234e-03	-2.68459505e-02	3.61279866e-03
-7.49926880e-03	-2.56504870e-02	1.77511192e-02
2.53130501e-02	-1.54412773e-02	1.79251216e-02
2.70461492e-02	1.37796867e-02	1.82147839e-02
3.55146859e-02	-1.45359596e-02	1.81867139e-02
-1.68803679e-05	-3.51497786e-02	7.34241812e-03
4.49521545e-03	-1.79632128e-02	1.75568187e-02
3.77023394e-02	1.10860564e-02	1.16859560e-02
1.46286299e-02	-9.39916061e-03	5.91282023e-03
4.16232536e-04	-3.40055171e-02	1.41234280e-02
3.45983391e-02	-1.95326451e-02	1.06166756e-02
2.46585968e-02	-1.28480845e-02	6.28159034e-03
2.04953506e-02	1.03351789e-02	1.92115780e-03
2.41913198e-02	-1.52584174e-02	1.42224206e-02
-8.10995748e-03	-3.76278068e-02	5.64173545e-03
2.57187012e-03	-3.70871053e-02	2.28884324e-03
3.07453158e-02	1.04718159e-02	1.72782357e-02
2.91387639e-02	-2.69406042e-02	2.18025787e-03
1.40352858e-02	-8.46768599e-03	2.47734399e-03
1.90988672e-02	-2.59809073e-03	2.16090634e-03
3.43944878e-02	-1.27787837e-02	8.85986783e-03
1.00853401e-02	-3.83557397e-02	1.53916684e-02
2.27435645e-02	7.98846080e-03	1.27640543e-02
2.23813324e-02	-2.86191463e-02	1.10072298e-02
2.46919204e-02	-1.12646423e-02	1.51524838e-02
1.32235832e-02	-4.59279296e-03	9.27464796e-03
2.37081240e-02	1.68287290e-02	2.11849486e-03
1.01146774e-02	-3.71276343e-03	5.63882580e-03
2.65542044e-02	6.18067144e-03	1.80816714e-02
3.91835703e-02	-4.68903603e-03	1.07697598e-02
2.25290784e-02	3.88404351e-03	1.10349497e-02
-7.85461641e-03	-3.53533015e-02	1.02312320e-02
1.79923587e-02	-3.62295032e-02	9.70082982e-03
1.23430650e-03	-2.21499309e-02	1.24895896e-02
3.28867364e-03	-2.46766838e-02	4.06579968e-03
1.89855745e-02	-3.20017242e-02	1.14598670e-02
1.79975337e-02	4.37786326e-03	1.41346879e-02
3.87332424e-02	-5.40447078e-03	2.20475160e-03
-1.92468409e-03	-3.26474068e-02	1.78559078e-02
3.00317638e-02	-2.22919451e-03	1.58812742e-02
2.35337572e-03	-3.67910524e-02	1.14980444e-02
1.28134231e-02	-1.94023650e-02	1.15919789e-02
8.05571333e-03	-3.85195660e-02	1.34714777e-02
1.96947528e-02	-2.02716094e-02	1.02897908e-02
-8.55103663e-04	-3.68452495e-02	1.80100682e-02
2.54536751e-02	-1.41661573e-02	2.23479258e-03
1.64852883e-02	-1.81049437e-02	9.95259470e-03
1.45650459e-02	-3.63906356e-02	1.23348951e-02
2.22943599e-02	-1.59108882e-02	2.56844226e-03
3.11156053e-02	-1.70284093e-02	1.12080817e-02
2.57171382e-02	-2.28566864e-02	1.50541731e-02
3.60864012e-02	-1.67610913e-02	8.85214109e-03
7.19956679e-03	-3.29701935e-02	1.80234830e-02
3.65498591e-02	9.49151086e-04	1.45926264e-02
3.17913897e-02	-5.02059442e-03	1.50551752e-02
3.61526233e-02	2.50842125e-03	1.79429428e-02
2.90388344e-02	3.85839770e-03	1.03780724e-02
1.58764174e-02	-1.87133117e-02	1.78953310e-02
2.81490761e-02	-2.46446456e-02	9.37153255e-03
2.72740241e-02	1.10877551e-02	5.24693124e-03
3.66305221e-03	-3.55085277e-02	6.57934096e-03
3.82072241e-02	-1.02531531e-02	3.27947362e-03
1.10423310e-02	-8.19152102e-03	1.78043562e-02
3.53221267e-02	-9.79730890e-03	6.31971502e-03
3.89578381e-02	7.23366222e-03	9.35943266e-03
1.84671982e-02	-3.04749777e-02	7.10850333e-03
3.29774599e-02	1.18026269e-02	2.61682776e-03
-5.37581216e-03	-3.76523253e-02	1.82173264e-02
-4.83177615e-03	-3.71526015e-02	1.37501828e-02
1.20195892e-02	-7.06971526e-04	1.12644907e-02
1.79475884e-02	-3.07088460e-02	1.76697443e-02
2.25149250e-02	-1.54613317e-02	6.37239445e-03
-8.38809485e-03	-3.12933714e-02	7.65028061e-03
3.82515881e-02	4.56415751e-03	1.84160259e-02
3.39517939e-02	-2.11145756e-02	1.82040067e-02
9.14075387e-03	-3.34337028e-02	9.12154892e-03
2.90721325e-02	2.94321993e-03	6.97672411e-03
2.59409230e-02	-2.77335583e-04	1.73779702e-03
2.90356989e-02	4.55051294e-04	1.80227161e-02
3.33189373e-02	-1.27914904e-03	2.14149053e-03
-4.02206775e-04	-4.18943373e-02	2.62693562e-03
9.75427481e-03	-1.43127116e-02	1.64453884e-02
3.11120950e-02	-2.46272687e-02	1.09632867e-02
3.52112217e-02	4.12339694e-03	6.23812307e-03
3.22767705e-02	-9.71817107e-03	4.02364910e-03
5.42000909e-03	-3.98534350e-02	1.03003300e-02
2.84629291e-03	-3.09724128e-02	4.62471868e-03
3.23042473e-02	1.41785614e-02	6.09620458e-03
8.45373120e-03	-3.96874066e-02	2.58181316e-03
1.01024363e-02	-1.24996415e-02	9.35199019e-03
3.06117120e-02	1.85363351e-02	7.50201680e-03
2.98818920e-02	-2.71362284e-02	6.01627195e-03
3.50322222e-02	-1.03534675e-02	1.24983048e-02
2.30703298e-02	-2.16816961e-03	1.85760784e-02
3.84060473e-03	-2.04290123e-02	9.03300756e-03
3.06829055e-02	-1.08596080e-02	7.25224725e-03
3.14700678e-02	-9.92377304e-03	1.10751296e-02
2.14891382e-02	-3.01739029e-02	1.55567405e-02
3.68288954e-02	8.62496791e-03	1.72330065e-02
3.23577879e-02	-7.41490302e-03	8.01711995e-03
4.46297129e-04	-4.24762446e-02	1.01986247e-02
2.31806921e-02	-8.30595727e-03	7.31210190e-03
2.62702526e-02	-1.10280422e-02	4.05055697e-03
3.42467430e-02	-1.02559588e-02	1.76032048e-03
5.60545225e-03	-2.44011823e-02	8.53828610e-03
3.35144316e-02	-1.70204140e-02	2.03625491e-03
4.40710928e-03	-3.66058130e-02	1.80482360e-02
1.21459321e-02	-3.10272078e-02	1.72962672e-02
2.72398958e-02	-1.88687571e-02	1.73317417e-03
3.24037656e-02	3.10922549e-03	1.39745343e-02
3.25734373e-02	-4.37144006e-03	1.95106257e-03
4.45131119e-03	-4.01072181e-02	1.47375018e-02
3.60583871e-02	-1.73199198e-02	4.92387356e-03
7.23531881e-03	-1.95581074e-02	7.04239293e-03
1.44166263e-02	2.49425677e-03	7.64081267e-03
8.13380228e-03	-3.05260641e-02	1.90761263e-03
2.42715193e-02	-8.89725122e-03	1.46161889e-02
-1.35764473e-02	-3.57777249e-02	1.60144686e-02
3.92206968e-02	2.23920649e-03	5.59057953e-03
3.57179512e-02	1.42171842e-02	1.82137960e-02
3.01996670e-04	-4.16390964e-02	1.45245898e-02
-3.27562778e-03	-1.95176066e-02	6.34213111e-03
-4.37980868e-03	-2.40859233e-02	1.30782309e-02
2.57790809e-02	-2.46064674e-02	1.08469837e-02
1.33239653e-02	-2.99270222e-02	1.86336573e-03
2.39275762e-02	-2.25271522e-02	2.33171793e-03
3.71027191e-02	1.33372703e-02	4.46311262e-03
3.81880991e-03	-3.07293104e-02	1.79472041e-02
1.36657208e-02	6.14361603e-04	1.20708577e-02
1.77353462e-02	-1.35661365e-02	2.23827983e-03
3.93293624e-02	1.35422023e-04	1.30914873e-02
1.46631316e-02	-2.88846015e-03	5.67719004e-03
-1.31056256e-02	-3.22192998e-02	1.25269653e-03
2.46086427e-02	-9.71670975e-03	1.10339682e-02
2.21800932e-02	-1.92335539e-02	1.58313738e-02
3.23302781e-02	-4.99839257e-04	1.63954930e-02
-1.80672623e-03	-4.00150198e-02	1.08662381e-02
1.32854936e-02	-2.41984620e-02	1.38198528e-02
1.41495345e-02	-3.69277512e-02	2.27043020e-03
-6.30825576e-03	-3.19593911e-02	5.67196688e-03
-4.23073774e-03	-3.90697441e-02	1.88586931e-03
3.15090490e-02	-2.43922979e-02	2.05633249e-03
4.42161985e-04	-2.50273466e-02	2.00504867e-03
1.86894466e-02	-1.26686377e-02	1.04841005e-02
3.13244876e-02	-1.13782894e-02	1.52434716e-02
8.74171632e-03	-2.93343801e-02	1.68862229e-02
2.80147681e-02	-2.40506579e-03	8.86119531e-03
-3.06014609e-03	-2.35090635e-02	9.99112597e-03
6.86959206e-03	-3.41554116e-02	1.16049962e-02
2.41124032e-02	-1.89833816e-02	8.81399885e-03
2.89729352e-02	-2.01592991e-02	1.37686840e-02
1.99838321e-03	-1.48039396e-02	4.60901470e-03
1.44257418e-02	-1.54631940e-02	6.16406390e-03
3.78951493e-02	6.89049288e-03	1.48528548e-02
1.51663754e-03	-2.12684345e-02	3.92024086e-03
2.63935711e-02	1.36309745e-02	7.92188128e-03
-5.30743103e-03	-2.27219935e-02	1.49261965e-03
3.77352323e-02	2.49095747e-03	8.78447824e-03
2.23699649e-02	-2.83495471e-02	1.82118976e-02
2.28339164e-02	-4.10937959e-03	2.28510241e-03
6.66592527e-03	-1.94249436e-02	1.40193443e-02
2.21753876e-02	-2.02460844e-02	5.55268443e-03
-1.53739020e-02	-3.59215712e-02	7.24780438e-03
2.81233377e-02	-2.47571437e-02	1.79716469e-02
3.22482843e-02	-2.43012590e-02	5.74243540e-03
-1.22305934e-02	-2.30615814e-02	1.70135517e-02
3.50507744e-02	-7.66370847e-03	9.98295706e-03
1.29677687e-02	-3.45205782e-02	1.78255813e-02
-2.68026044e-05	-2.53376906e-02	1.69366187e-02
-8.89881331e-03	-3.46995109e-02	1.68964715e-02
2.43445629e-03	-1.49142675e-02	1.51105371e-02
3.23914850e-02	2.24060914e-02	2.42119435e-03
3.33638418e-02	8.93683970e-03	1.76230259e-02
8.31290336e-03	-5.22643193e-03	1.71710459e-02
2.46325203e-02	-1.75918187e-03	7.05958494e-03
2.27350522e-02	-2.85416810e-02	5.13590369e-03
3.09552538e-02	1.28843123e-04	5.25764561e-03
3.15217754e-03	-3.72261071e-02	1.79050714e-02
2.39477801e-02	-3.16969090e-02	1.38672978e-02
2.75590651e-02	6.61019690e-03	1.28566342e-02
-1.02982220e-04	-1.33412191e-02	1.10675349e-02
9.87655692e-03	-2.88651386e-02	2.28126403e-03
2.52330443e-02	1.17682413e-02	1.22164283e-02
-4.67037334e-03	-3.33518802e-02	1.77217258e-02
1.33488465e-02	1.05387864e-03	2.24022974e-03
3.20665351e-02	-1.75488178e-02	1.55308769e-02
2.66793482e-02	3.52279963e-03	1.52979301e-02
2.95405159e-02	-2.70746987e-02	1.51095451e-02
1.30879440e-02	-3.65284685e-02	1.75717321e-02
1.10582538e-02	-1.48225378e-02	4.80587050e-03
2.29910806e-02	-2.09506211e-02	1.31058437e-02
3.20491557e-02	8.59104372e-03	1.16472456e-02
2.74753229e-02	-1.14913895e-02	9.75645405e-03
1.66620305e-02	-2.37610733e-02	6.53269109e-03
3.54150221e-02	-9.34291175e-03	1.83463749e-02
6.52716593e-03	-3.60783408e-02	1.46538723e-02
1.03233827e-02	-3.13613292e-02	1.43641965e-02
3.08367776e-02	-2.47993142e-02	1.79798216e-02
3.55871180e-02	1.37479154e-02	1.09811360e-02
3.39157624e-02	-1.38932908e-02	1.47378257e-02
1.23341111e-02	-3.18176861e-02	7.79827293e-03
1.72307833e-02	-2.97041171e-02	1.32358519e-02
1.77995328e-02	-3.43400425e-02	6.06814288e-03
1.44141582e-02	-3.87695582e-03	1.35378000e-02
2.02665082e-02	-2.50081037e-02	1.17799453e-02
3.87809320e-02	-3.58203525e-03	1.45046913e-02
2.95310230e-02	-7.16690695e-03	1.99555440e-03
3.61040890e-02	-4.66440303e-03	1.31639911e-02
3.32228653e-02	-1.53828090e-03	1.32330141e-02
1.27940181e-02	-7.53297228e-03	1.43103359e-02
[...]
POINT_DATA 469
SCALARS Radius double 1
LOOKUP_TABLE default
2.00000000e-03
2.00000000e-03
2.00000000e-03
2.00000000e-03
2.00000000e-03
2.00000000e-03
2.00000000e-03
2.00000000e-03
2.00000000e-03
2.00000000e-03
2.00000000e-03
2.00000000e-03
2.00000000e-03
2.00000000e-03
2.00000000e-03
2.00000000e-03
2.00000000e-03
2.00000000e-03
2.00000000e-03
2.00000000e-03
2.00000000e-03
2.00000000e-03
2.00000000e-03
2.00000000e-03
2.00000000e-03
2.00000000e-03
2.00000000e-03
2.00000000e-03
2.00000000e-03
2.00000000e-03
2.00000000e-03
2.00000000e-03
2.00000000e-03
2.00000000e-03
2.00000000e-03
2.00000000e-03
2.00000000e-03
2.00000000e-03
2.00000000e-03
2.00000000e-03
2.00000000e-03
2.00000000e-03
2.00000000e-03
2.00000000e-03
2.00000000e-03
2.00000000e-03
2.00000000e-03
2.00000000e-03
2.00000000e-03
2.00000000e-03
2.00000000e-03
2.00000000e-03
2.00000000e-03
2.00000000e-03
2.00000000e-03
2.00000000e-03
2.00000000e-03
2.00000000e-03
2.00000000e-03
2.00000000e-03
2.00000000e-03
2.00000000e-03
2.00000000e-03
2.00000000e-03
2.00000000e-03
2.00000000e-03
2.00000000e-03
2.00000000e-03
2.00000000e-03
2.00000000e-03
2.00000000e-03
2.00000000e-03
2.00000000e-03
2.00000000e-03
2.00000000e-03
2.00000000e-03
2.00000000e-03
2.00000000e-03
2.00000000e-03
2.00000000e-03
2.00000000e-03
2.00000000e-03
2.00000000e-03
2.00000000e-03
2.00000000e-03
2.00000000e-03
2.00000000e-03
2.00000000e-03
2.00000000e-03
2.00000000e-03
2.00000000e-03
2.00000000e-03
2.00000000e-03
2.00000000e-03
2.00000000e-03
2.00000000e-03
2.00000000e-03
2.00000000e-03
2.00000000e-03
2.00000000e-03
2.00000000e-03
2.00000000e-03
2.00000000e-03
2.00000000e-03
2.00000000e-03
2.00000000e-03
2.00000000e-03
2.00000000e-03
2.00000000e-03
2.00000000e-03
2.00000000e-03
2.00000000e-03
2.00000000e-03
2.00000000e-03
2.00000000e-03
2.00000000e-03
2.00000000e-03
2.00000000e-03
2.00000000e-03
2.00000000e-03
2.00000000e-03
2.00000000e-03
2.00000000e-03
2.00000000e-03
2.00000000e-03
2.00000000e-03
2.00000000e-03
2.00000000e-03
2.00000000e-03
2.00000000e-03
2.00000000e-03
2.00000000e-03
2.00000000e-03
2.00000000e-03
2.00000000e-03
2.00000000e-03
2.00000000e-03
2.00000000e-03
2.00000000e-03
2.00000000e-03
2.00000000e-03
2.00000000e-03
2.00000000e-03
2.00000000e-03
2.00000000e-03
2.00000000e-03
2.00000000e-03
2.00000000e-03
2.00000000e-03
2.00000000e-03
2.00000000e-03
2.00000000e-03
2.00000000e-03
2.00000000e-03
2.00000000e-03
2.00000000e-03
2.00000000e-03
2.00000000e-03
2.00000000e-03
2.00000000e-03
2.00000000e-03
2.00000000e-03
2.00000000e-03
2.00000000e-03
2.00000000e-03
2.00000000e-03
2.00000000e-03
2.00000000e-03
2.00000000e-03
2.00000000e-03
2.00000000e-03
2.00000000e-03
2.00000000e-03
2.00000000e-03
2.00000000e-03
2.00000000e-03
2.00000000e-03
2.00000000e-03
2.00000000e-03
2.00000000e-03
2.00000000e-03
2.00000000e-03
2.00000000e-03
2.00000000e-03
2.00000000e-03
2.00000000e-03
2.00000000e-03
2.00000000e-03
2.00000000e-03
2.00000000e-03
2.00000000e-03
2.00000000e-03
2.00000000e-03
2.00000000e-03
2.00000000e-03
2.00000000e-03
2.00000000e-03
2.00000000e-03
2.00000000e-03
2.00000000e-03
2.00000000e-03
2.00000000e-03
2.00000000e-03
2.00000000e-03
2.00000000e-03
2.00000000e-03
2.00000000e-03
2.00000000e-03
2.00000000e-03
2.00000000e-03
2.00000000e-03
2.00000000e-03
2.00000000e-03
2.00000000e-03
2.00000000e-03
2.00000000e-03
2.00000000e-03
2.00000000e-03
2.00000000e-03
2.00000000e-03
2.00000000e-03
2.00000000e-03
2.00000000e-03
2.00000000e-03
2.00000000e-03
2.00000000e-03
2.00000000e-03
2.00000000e-03
2.00000000e-03
2.00000000e-03
2.00000000e-03
2.00000000e-03
2.00000000e-03
2.00000000e-03
2.00000000e-03
2.00000000e-03
2.00000000e-03
2.00000000e-03
2.00000000e-03
2.00000000e-03
2.00000000e-03
2.00000000e-03
2.00000000e-03
2.00000000e-03
2.00000000e-03
2.00000000e-03
2.00000000e-03
2.00000000e-03
2.00000000e-03
2.00000000e-03
2.00000000e-03
2.00000000e-03
2.00000000e-03
2.00000000e-03
2.00000000e-03
2.00000000e-03
2.00000000e-03
2.00000000e-03
2.00000000e-03
2.00000000e-03
2.00000000e-03
2.00000000e-03
2.00000000e-03
2.00000000e-03
2.00000000e-03
2.00000000e-03
2.00000000e-03
2.00000000e-03
2.00000000e-03
2.00000000e-03
2.00000000e-03
2.00000000e-03
2.00000000e-03
2.00000000e-03
2.00000000e-03
2.00000000e-03
2.00000000e-03
2.00000000e-03
2.00000000e-03
2.00000000e-03
2.00000000e-03
2.00000000e-03
2.00000000e-03
2.00000000e-03
2.00000000e-03
2.00000000e-03
2.00000000e-03
2.00000000e-03
2.00000000e-03
2.00000000e-03
2.00000000e-03
2.00000000e-03
2.00000000e-03
2.00000000e-03
2.00000000e-03
2.00000000e-03
2.00000000e-03
2.00000000e-03
2.00000000e-03
2.00000000e-03
2.00000000e-03
2.00000000e-03
2.00000000e-03
2.00000000e-03
2.00000000e-03
2.00000000e-03
2.00000000e-03
2.00000000e-03
2.00000000e-03
2.00000000e-03
2.00000000e-03
2.00000000e-03
2.00000000e-03
2.00000000e-03
2.00000000e-03
2.00000000e-03
2.00000000e-03
2.00000000e-03
2.00000000e-03
2.00000000e-03
2.00000000e-03
2.00000000e-03
2.00000000e-03
2.00000000e-03
2.00000000e-03
2.00000000e-03
2.00000000e-03
2.00000000e-03
2.00000000e-03
2.00000000e-03
2.00000000e-03
2.00000000e-03
2.00000000e-03
2.00000000e-03
2.00000000e-03
2.00000000e-03
2.00000000e-03
2.00000000e-03
2.00000000e-03
2.00000000e-03
2.00000000e-03
2.00000000e-03
2.00000000e-03
2.00000000e-03
2.00000000e-03
2.00000000e-03
2.00000000e-03
2.00000000e-03
2.00000000e-03
2.00000000e-03
2.00000000e-03
2.00000000e-03
2.00000000e-03
2.00000000e-03
2.00000000e-03
2.00000000e-03
2.00000000e-03
2.00000000e-03
2.00000000e-03
2.00000000e-03
2.00000000e-03
2.00000000e-03
2.00000000e-03
2.00000000e-03
2.00000000e-03
2.00000000e-03
2.00000000e-03
2.00000000e-03
2.00000000e-03
2.00000000e-03
2.00000000e-03
2.00000000e-03
2.00000000e-03
2.00000000e-03
2.00000000e-03
2.00000000e-03
2.00000000e-03
2.00000000e-03
2.00000000e-03
2.00000000e-03
2.00000000e-03
2.00000000e-03
2.00000000e-03
2.00000000e-03
2.00000000e-03
2.00000000e-03
2.00000000e-03
2.00000000e-03
2.00000000e-03
2.00000000e-03
2.00000000e-03
2.00000000e-03
2.00000000e-03
2.00000000e-03
2.00000000e-03
2.00000000e-03
2.00000000e-03
2.00000000e-03
2.00000000e-03
2.00000000e-03
2.00000000e-03
2.00000000e-03
2.00000000e-03
2.00000000e-03
2.00000000e-03
2.00000000e-03
2.00000000e-03
2.00000000e-03
2.00000000e-03
2.00000000e-03
2.00000000e-03
2.00000000e-03
2.00000000e-03
2.00000000e-03
2.00000000e-03
2.00000000e-03
2.00000000e-03
2.00000000e-03
2.00000000e-03
2.00000000e-03
2.00000000e-03
2.00000000e-03
2.00000000e-03
2.00000000e-03
2.00000000e-03
2.00000000e-03
2.00000000e-03
2.00000000e-03
2.00000000e-03
2.00000000e-03
2.00000000e-03
2.00000000e-03
2.00000000e-03
2.00000000e-03
2.00000000e-03
2.00000000e-03
2.00000000e-03
2.00000000e-03
2.00000000e-03
2.00000000e-03
2.00000000e-03
2.00000000e-03
2.00000000e-03
2.00000000e-03
2.00000000e-03
2.00000000e-03
2.00000000e-03
2.00000000e-03
2.00000000e-03
2.00000000e-03
2.00000000e-03
2.00000000e-03
2.00000000e-03
2.00000000e-03
2.00000000e-03
2.00000000e-03
2.00000000e-03
2.00000000e-03
2.00000000e-03
2.00000000e-03
2.00000000e-03
2.00000000e-03
2.00000000e-03
2.00000000e-03
2.00000000e-03
2.00000000e-03
2.00000000e-03
2.00000000e-03
2.00000000e-03
