# vtk DataFile Version 2.0
Particle data
ASCII
DATASET POLYDATA
POINTS 469 double
7.19909601e-03	-3.87584730e-02	1.52014182e-02
1.08429211e-02	-2.69154083e-02	1.26578039e-02
-7.47809799e-03	-3.05251868e-02	1.14873137e-02
3.22754470e-02	-7.40974538e-03	8.66718119e-03
1.84906529e-02	-2.25379770e-02	1.91559582e-03
2.43989365e-03	-3.48572311e-02	2.75713242e-03
-7.61137635e-04	-3.90033221e-02	1.85179116e-02
2.91600391e-02	-4.66221445e-03	1.77694402e-02
6.17793445e-03	-8.83695568e-03	1.79022843e-02
3.70069887e-02	-6.31159689e-05	1.80480568e-02
1.37122301e-02	-3.62991494e-02	7.33254546e-03
5.73314561e-03	-2.84524009e-02	1.81799084e-02
2.76760558e-02	1.12419073e-02	1.00658080e-02
1.09527468e-02	-2.04726527e-02	5.75105207e-03
1.42635556e-02	-3.37474515e-02	1.44712447e-02
3.95628777e-02	-5.31370548e-03	1.12530889e-02
2.49684205e-02	-7.77153822e-03	6.51913449e-03
6.44802180e-03	-2.16845292e-02	2.26285861e-03
2.67837096e-02	-7.00771507e-03	1.34100340e-02
8.75505395e-03	-3.66766544e-02	4.80982961e-03
1.78328443e-02	-3.43782991e-02	2.29908565e-03
1.44993223e-02	2.51707149e-03	1.71450689e-02
3.60705536e-02	-1.47999075e-02	2.19944271e-03
-1.98111305e-03	-2.94613901e-02	5.89383973e-03
3.70776522e-03	-2.34281416e-02	4.11238913e-03
3.48142115e-02	-1.97952183e-03	9.07893478e-03
2.66235468e-02	-2.98885682e-02	1.49419739e-02
3.40251803e-03	-2.41676198e-02	1.55908115e-02
3.22413849e-02	-1.57830998e-02	1.15580787e-02
2.60705745e-02	-2.69016923e-03	1.50693439e-02
8.16608332e-03	-2.97149038e-02	9.18076134e-03
-8.66284483e-03	-2.68929936e-02	7.02734530e-03
2.89418351e-03	-2.79027729e-02	7.61054801e-03
1.41678964e-02	-3.78211101e-03	1.84804735e-02
3.82885173e-02	1.02804514e-02	1.06123935e-02
9.67745263e-03	-1.98466182e-02	1.17201759e-02
6.40095209e-03	-3.94910305e-02	9.35428505e-03
3.30771949e-02	-2.36096939e-02	1.00164900e-02
5.21938332e-03	-3.02998936e-02	1.31988531e-02
1.14635098e-02	-3.12479956e-02	4.92176129e-03
3.13414370e-02	-2.03645748e-02	1.20321759e-02
-1.30598811e-03	-2.78112687e-02	1.69311433e-02
3.72100881e-02	7.51085679e-03	2.45332408e-03
9.54086729e-03	-3.62156523e-02	1.80476391e-02
2.50768389e-02	3.34609355e-03	1.36475464e-02
1.81509903e-02	-3.19977971e-02	1.06307660e-02
1.70653043e-02	-2.08524624e-02	9.89963749e-03
2.39682842e-02	-2.93680433e-02	1.30756887e-02
2.49977291e-02	-1.17025532e-02	9.95582055e-03
1.31922457e-02	-3.72712788e-02	1.82320923e-02
2.82667135e-02	-5.18198460e-03	1.53993152e-03
1.87533848e-02	-1.94535962e-02	8.14357175e-03
3.06601579e-02	-2.39000565e-02	1.27531652e-02
2.66482748e-02	-6.56498537e-03	2.71837624e-03
3.38606914e-02	-4.41740628e-03	1.17793641e-02
3.27404981e-02	-9.55699200e-03	1.49492931e-02
3.92217983e-02	-1.57630849e-03	9.19660473e-03
2.20880602e-02	-2.48823065e-02	1.77804047e-02
3.20847150e-02	1.12011735e-02	1.48848612e-02
2.92522573e-02	5.03298939e-03	1.47717826e-02
2.99105904e-02	1.17424801e-02	1.81175626e-02
1.84907281e-02	-6.04049060e-03	1.16986778e-02
2.07747339e-02	-1.14555127e-02	1.83929830e-02
3.56949813e-02	-1.02593471e-02	9.06341979e-03
1.16909249e-02	-9.23262635e-03	5.49494138e-03
1.70415639e-02	-3.19952621e-02	5.08812342e-03
3.83304472e-02	3.54921824e-03	3.77824886e-03
6.37049142e-03	-2.45220862e-02	1.45365857e-02
3.45034115e-02	1.01671848e-03	6.16370829e-03
2.76831285e-02	1.27321008e-02	8.91852682e-03
3.10242685e-02	-1.85165870e-02	7.65394509e-03
1.40464712e-02	5.16445948e-03	1.87667204e-03
1.03464227e-02	-3.93672888e-02	1.79775247e-02
1.35674538e-02	-3.52636957e-02	1.35310212e-02
-1.15255624e-02	-3.28644070e-02	4.36599828e-03
2.93245018e-02	-1.92662395e-02	1.77449056e-02
2.31557962e-02	-9.66215316e-03	4.87918911e-03
2.88199313e-03	-3.77215449e-02	6.86512096e-03
3.01761259e-02	1.90502089e-02	1.82593041e-02
3.93304872e-02	-7.55469149e-03	1.80479428e-02
2.49942334e-02	-2.36220170e-02	8.91037385e-03
2.18356512e-02	-7.67947364e-03	8.21460253e-03
2.11953334e-02	-2.05803907e-03	5.30268127e-03
1.89750416e-02	-2.56682830e-03	1.80949136e-02
2.91607874e-02	1.07371077e-02	2.37880653e-03
1.86190365e-02	-3.77942438e-02	2.81657298e-03
1.20347973e-02	-2.51683488e-02	1.71652982e-02
3.75156892e-02	-1.15176540e-02	1.06204110e-02
2.35985087e-02	7.06370704e-03	6.52469369e-03
3.17175179e-02	3.56599538e-03	3.80969496e-03
2.26996376e-02	-3.25715013e-02	9.44329119e-03
1.34587580e-02	-3.58201274e-02	4.84052571e-03
2.17689954e-03	-1.39051937e-02	9.34220411e-03
2.37146616e-02	-3.36817952e-02	1.82999482e-03
2.66632788e-03	-2.78634437e-02	1.06739783e-02
-3.32053279e-03	-2.24986578e-02	9.88786517e-03
3.86690491e-02	-1.15280486e-02	6.52938109e-03
3.45156345e-02	6.89044253e-04	1.26735990e-02
9.02182485e-03	-1.27873958e-02	1.89602273e-02
4.97602400e-03	-3.13516761e-02	8.85561533e-03
3.14419502e-02	-9.91187258e-04	6.71615056e-03
3.01015564e-02	1.02134088e-03	1.11793934e-02
3.32390430e-02	-1.75201321e-02	1.56495760e-02
2.24874336e-02	1.07671346e-02	1.81345633e-02
3.11573555e-02	4.79326716e-03	8.20248692e-03
1.74685240e-02	-4.06346387e-02	1.01835672e-02
1.63647788e-02	-1.07024535e-02	9.78173962e-03
2.67653287e-02	-4.08369433e-03	4.22867368e-03
3.55518301e-02	3.85727187e-03	1.99583949e-03
1.15330694e-02	-2.91616217e-02	8.49673338e-03
3.67367937e-02	-2.16511411e-03	2.15408445e-03
2.07671280e-02	-3.25149938e-02	1.81675440e-02
2.58169407e-02	-2.06027074e-02	1.76746302e-02
3.30053872e-02	-5.28598465e-03	1.74491137e-03
2.71585565e-02	9.82322098e-03	1.38009480e-02
2.94963264e-02	5.69964249e-03	1.85182100e-03
1.97546972e-02	-3.71053093e-02	1.46891414e-02
3.89630603e-02	-3.06833558e-03	5.48835329e-03
1.32426086e-02	-2.29138981e-02	5.54747393e-03
-5.18084433e-03	-3.42431911e-02	2.68639682e-03
2.04379724e-02	-2.74802384e-02	1.96018177e-03
2.19875472e-02	-1.64698387e-03	1.44886671e-02
3.90998503e-03	-3.79808705e-02	1.65944519e-02
3.37443476e-02	1.52466772e-02	6.13901584e-03
1.55497302e-02	6.32607730e-03	1.78940735e-02
1.75159907e-02	-3.76723099e-02	1.51672202e-02
-1.08295473e-03	-3.46115031e-02	5.40091725e-03
2.85112975e-03	-3.53387901e-02	1.21298263e-02
3.24735327e-02	-1.27394883e-02	1.05315400e-02
2.54332801e-02	-1.98744680e-02	1.92909503e-03
3.08160388e-02	-1.03667745e-02	2.03788179e-03
1.96508340e-02	5.65837188e-03	6.36160836e-03
1.76550809e-02	-2.77803802e-02	1.82774319e-02
-2.14800775e-03	-3.17556106e-02	9.01341271e-03
1.51208492e-02	-1.88653609e-02	4.69736023e-03
3.38328199e-02	1.32437543e-02	1.32116551e-02
4.60771519e-03	-2.84320867e-02	6.58213663e-03
-1.50722077e-03	-3.90431575e-02	9.43619325e-04
2.48420287e-02	-6.37232485e-04	1.08187594e-02
2.72159001e-02	-9.64837160e-03	1.51372085e-02
2.74154999e-02	4.34224132e-03	1.73334472e-02
1.43593814e-02	-3.84554854e-02	1.04720648e-02
2.13237962e-02	-1.72478759e-02	1.28802796e-02
2.89881235e-02	-2.60128138e-02	1.51223513e-03
2.57776701e-03	-3.71775700e-02	5.05546778e-03
1.31447239e-02	-3.61834963e-02	2.48945924e-03
3.86270601e-02	-9.75329733e-03	1.99010403e-03
1.01424115e-02	-3.03015367e-02	1.93989031e-03
1.81286769e-02	-1.60513105e-02	1.01391454e-02
3.29862136e-02	1.98723404e-04	1.46089908e-02
2.06767827e-02	-2.17941321e-02	1.75780067e-02
1.90503560e-02	-8.92499240e-03	9.86985531e-03
3.46225884e-03	-3.38256913e-02	9.22029028e-03
2.21791853e-02	-2.55331826e-02	1.15212110e-02
2.69124704e-02	-8.96652203e-03	8.72186008e-03
3.46301422e-02	-6.46432358e-03	1.44753357e-02
-1.10224415e-03	-3.18680658e-02	1.71784555e-03
1.74297122e-02	-1.99193699e-02	4.69072077e-03
2.94519764e-02	1.84027278e-02	1.55881389e-02
8.37487124e-03	-2.78714380e-02	5.19385382e-03
4.97752619e-03	-2.05284606e-02	1.00837479e-02
4.81469095e-03	-3.60224872e-02	1.62173617e-03
3.28685161e-02	1.63013535e-02	7.43115193e-03
3.37356380e-02	-1.41560780e-02	1.84098992e-02
2.02378940e-02	-5.46810123e-03	2.87369660e-03
9.45078299e-03	-2.82286375e-02	1.17758093e-02
2.69358892e-02	-1.17943364e-02	5.17025147e-03
-2.39335345e-03	-4.09401209e-02	7.58457311e-03
3.57762936e-02	-9.33204287e-03	1.80383285e-02
3.88208561e-02	-9.68665165e-03	6.06073446e-03
-5.89762850e-03	-3.58739195e-02	1.60077016e-02
3.55927548e-02	3.84750137e-03	9.30730279e-03
2.81731501e-02	-2.32778802e-02	1.74678015e-02
7.65607361e-03	-3.21993994e-02	1.59372881e-02
5.91436477e-03	-3.91386209e-02	1.77697861e-02
-1.21551778e-02	-3.59407778e-02	1.07142977e-02
1.27350773e-02	-3.16298140e-03	1.74136412e-03
2.18560977e-02	7.10339788e-03	1.66721605e-02
-2.39431328e-03	-2.75403554e-02	1.31194676e-02
-1.75084539e-03	-2.53257094e-02	8.55380312e-03
3.17410144e-02	-1.66241497e-02	4.99982598e-03
2.71853291e-02	6.87950984e-03	6.05647988e-03
1.71089513e-02	-3.90504403e-02	1.81080587e-02
3.67904977e-02	-1.65953726e-02	1.41775011e-02
1.26260128e-02	-7.44136510e-03	1.54385387e-02
-1.15846960e-03	-2.92547191e-02	1.28332687e-02
1.82842158e-02	-2.41859231e-02	2.30878296e-03
5.57221846e-03	-2.11367482e-02	1.51991268e-02
8.53200549e-03	-3.52381996e-02	1.78036952e-02
1.29007330e-03	-2.81423732e-02	2.10450665e-03
3.63167342e-02	-3.37128867e-03	1.57545017e-02
1.83871007e-02	-5.21300955e-03	1.57647951e-02
3.67034222e-02	-1.41937669e-02	1.45994908e-02
2.57560001e-02	-2.66098948e-02	1.73494826e-02
1.47205889e-02	-2.21116122e-02	1.90008143e-03
2.88378004e-02	-1.01511551e-02	1.29321614e-02
1.50707811e-02	-2.83988081e-03	1.19389140e-02
2.87267654e-02	-3.59443371e-03	1.00027662e-02
2.34089285e-02	-1.41427545e-02	6.19514413e-03
3.50464023e-02	2.91919898e-03	1.82461611e-02
2.31652433e-02	-2.64755677e-02	1.41092029e-02
2.41226708e-02	-2.13164779e-02	1.43736976e-02
3.89772988e-02	-9.77965139e-03	1.77758592e-02
1.71504174e-02	3.82713195e-03	9.84591024e-03
3.53827809e-02	-1.41365511e-03	1.40010021e-02
2.63988042e-02	-2.10274226e-02	7.83247105e-03
2.72999912e-02	-1.93912746e-02	1.40226793e-02
3.07282845e-02	-2.36980523e-02	5.93197810e-03
7.92058975e-03	-2.40973936e-02	1.52757270e-02
2.92425160e-02	-1.42996331e-02	1.15100772e-02
3.71014950e-02	1.25462431e-02	1.46224515e-02
2.79218173e-02	4.70477385e-03	1.75708429e-03
3.49200794e-02	9.14938181e-03	1.11723419e-02
2.88285517e-02	8.13539948e-03	1.34753898e-02
1.65670495e-02	-1.84082689e-02	1.52302238e-02
9.38726486e-03	-2.34646560e-02	2.32244275e-03
[...]
POINT_DATA 469
SCALARS Radius double 1
LOOKUP_TABLE default
2.00000000e-03
2.00000000e-03
2.00000000e-03
2.00000000e-03
2.00000000e-03
2.00000000e-03
2.00000000e-03
2.00000000e-03
2.00000000e-03
2.00000000e-03
2.00000000e-03
2.00000000e-03
2.00000000e-03
2.00000000e-03
2.00000000e-03
2.00000000e-03
2.00000000e-03
2.00000000e-03
2.00000000e-03
2.00000000e-03
2.00000000e-03
2.00000000e-03
2.00000000e-03
2.00000000e-03
2.00000000e-03
2.00000000e-03
2.00000000e-03
2.00000000e-03
2.00000000e-03
2.00000000e-03
2.00000000e-03
2.00000000e-03
2.00000000e-03
2.00000000e-03
2.00000000e-03
2.00000000e-03
2.00000000e-03
2.00000000e-03
2.00000000e-03
2.00000000e-03
2.00000000e-03
2.00000000e-03
2.00000000e-03
2.00000000e-03
2.00000000e-03
2.00000000e-03
2.00000000e-03
2.00000000e-03
2.00000000e-03
2.00000000e-03
2.00000000e-03
2.00000000e-03
2.00000000e-03
2.00000000e-03
2.00000000e-03
2.00000000e-03
2.00000000e-03
2.00000000e-03
2.00000000e-03
2.00000000e-03
2.00000000e-03
2.00000000e-03
2.00000000e-03
2.00000000e-03
2.00000000e-03
2.00000000e-03
2.00000000e-03
2.00000000e-03
2.00000000e-03
2.00000000e-03
2.00000000e-03
2.00000000e-03
2.00000000e-03
2.00000000e-03
2.00000000e-03
2.00000000e-03
2.00000000e-03
2.00000000e-03
2.00000000e-03
2.00000000e-03
2.00000000e-03
2.00000000e-03
2.00000000e-03
2.00000000e-03
2.00000000e-03
2.00000000e-03
2.00000000e-03
2.00000000e-03
2.00000000e-03
2.00000000e-03
2.00000000e-03
2.00000000e-03
2.00000000e-03
2.00000000e-03
2.00000000e-03
2.00000000e-03
2.00000000e-03
2.00000000e-03
2.00000000e-03
2.00000000e-03
2.00000000e-03
2.00000000e-03
2.00000000e-03
2.00000000e-03
2.00000000e-03
2.00000000e-03
2.00000000e-03
2.00000000e-03
2.00000000e-03
2.00000000e-03
2.00000000e-03
2.00000000e-03
2.00000000e-03
2.00000000e-03
2.00000000e-03
2.00000000e-03
2.00000000e-03
2.00000000e-03
2.00000000e-03
2.00000000e-03
2.00000000e-03
2.00000000e-03
2.00000000e-03
2.00000000e-03
2.00000000e-03
2.00000000e-03
2.00000000e-03
2.00000000e-03
2.00000000e-03
2.00000000e-03
2.00000000e-03
2.00000000e-03
2.00000000e-03
2.00000000e-03
2.00000000e-03
2.00000000e-03
2.00000000e-03
2.00000000e-03
2.00000000e-03
2.00000000e-03
2.00000000e-03
2.00000000e-03
2.00000000e-03
2.00000000e-03
2.00000000e-03
2.00000000e-03
2.00000000e-03
2.00000000e-03
2.00000000e-03
2.00000000e-03
2.00000000e-03
2.00000000e-03
2.00000000e-03
2.00000000e-03
2.00000000e-03
2.00000000e-03
2.00000000e-03
2.00000000e-03
2.00000000e-03
2.00000000e-03
2.00000000e-03
2.00000000e-03
2.00000000e-03
2.00000000e-03
2.00000000e-03
2.00000000e-03
2.00000000e-03
2.00000000e-03
2.00000000e-03
2.00000000e-03
2.00000000e-03
2.00000000e-03
2.00000000e-03
2.00000000e-03
2.00000000e-03
2.00000000e-03
2.00000000e-03
2.00000000e-03
2.00000000e-03
2.00000000e-03
2.00000000e-03
2.00000000e-03
2.00000000e-03
2.00000000e-03
2.00000000e-03
2.00000000e-03
2.00000000e-03
2.00000000e-03
2.00000000e-03
2.00000000e-03
2.00000000e-03
2.00000000e-03
2.00000000e-03
2.00000000e-03
2.00000000e-03
2.00000000e-03
2.00000000e-03
2.00000000e-03
2.00000000e-03
2.00000000e-03
2.00000000e-03
2.00000000e-03
2.00000000e-03
2.00000000e-03
2.00000000e-03
2.00000000e-03
2.00000000e-03
2.00000000e-03
2.00000000e-03
2.00000000e-03
2.00000000e-03
2.00000000e-03
2.00000000e-03
2.00000000e-03
2.00000000e-03
2.00000000e-03
2.00000000e-03
2.00000000e-03
2.00000000e-03
2.00000000e-03
2.00000000e-03
2.00000000e-03
2.00000000e-03
2.00000000e-03
2.00000000e-03
2.00000000e-03
2.00000000e-03
2.00000000e-03
2.00000000e-03
2.00000000e-03
2.00000000e-03
2.00000000e-03
2.00000000e-03
2.00000000e-03
2.00000000e-03
2.00000000e-03
2.00000000e-03
2.00000000e-03
2.00000000e-03
2.00000000e-03
2.00000000e-03
2.00000000e-03
2.00000000e-03
2.00000000e-03
2.00000000e-03
2.00000000e-03
2.00000000e-03
2.00000000e-03
2.00000000e-03
2.00000000e-03
2.00000000e-03
2.00000000e-03
2.00000000e-03
2.00000000e-03
2.00000000e-03
2.00000000e-03
2.00000000e-03
2.00000000e-03
2.00000000e-03
2.00000000e-03
2.00000000e-03
2.00000000e-03
2.00000000e-03
2.00000000e-03
2.00000000e-03
2.00000000e-03
2.00000000e-03
2.00000000e-03
2.00000000e-03
2.00000000e-03
2.00000000e-03
2.00000000e-03
2.00000000e-03
2.00000000e-03
2.00000000e-03
2.00000000e-03
2.00000000e-03
2.00000000e-03
2.00000000e-03
2.00000000e-03
2.00000000e-03
2.00000000e-03
2.00000000e-03
2.00000000e-03
2.00000000e-03
2.00000000e-03
2.00000000e-03
2.00000000e-03
2.00000000e-03
2.00000000e-03
2.00000000e-03
2.00000000e-03
2.00000000e-03
2.00000000e-03
2.00000000e-03
2.00000000e-03
2.00000000e-03
2.00000000e-03
2.00000000e-03
2.00000000e-03
2.00000000e-03
2.00000000e-03
2.00000000e-03
2.00000000e-03
2.00000000e-03
2.00000000e-03
2.00000000e-03
2.00000000e-03
2.00000000e-03
2.00000000e-03
2.00000000e-03
2.00000000e-03
2.00000000e-03
2.00000000e-03
2.00000000e-03
2.00000000e-03
2.00000000e-03
2.00000000e-03
2.00000000e-03
2.00000000e-03
2.00000000e-03
2.00000000e-03
2.00000000e-03
2.00000000e-03
2.00000000e-03
2.00000000e-03
2.00000000e-03
2.00000000e-03
2.00000000e-03
2.00000000e-03
2.00000000e-03
2.00000000e-03
2.00000000e-03
2.00000000e-03
2.00000000e-03
2.00000000e-03
2.00000000e-03
2.00000000e-03
2.00000000e-03
2.00000000e-03
2.00000000e-03
2.00000000e-03
2.00000000e-03
2.00000000e-03
2.00000000e-03
2.00000000e-03
2.00000000e-03
2.00000000e-03
2.00000000e-03
2.00000000e-03
2.00000000e-03
2.00000000e-03
2.00000000e-03
2.00000000e-03
2.00000000e-03
2.00000000e-03
2.00000000e-03
2.00000000e-03
2.00000000e-03
2.00000000e-03
2.00000000e-03
2.00000000e-03
2.00000000e-03
2.00000000e-03
2.00000000e-03
2.00000000e-03
2.00000000e-03
2.00000000e-03
2.00000000e-03
2.00000000e-03
2.00000000e-03
2.00000000e-03
2.00000000e-03
2.00000000e-03
2.00000000e-03
2.00000000e-03
2.00000000e-03
2.00000000e-03
2.00000000e-03
2.00000000e-03
2.00000000e-03
2.00000000e-03
2.00000000e-03
2.00000000e-03
2.00000000e-03
2.00000000e-03
2.00000000e-03
2.00000000e-03
2.00000000e-03
2.00000000e-03
2.00000000e-03
2.00000000e-03
2.00000000e-03
2.00000000e-03
2.00000000e-03
2.00000000e-03
2.00000000e-03
2.00000000e-03
2.00000000e-03
2.00000000e-03
2.00000000e-03
2.00000000e-03
2.00000000e-03
2.00000000e-03
2.00000000e-03
2.00000000e-03
2.00000000e-03
2.00000000e-03
2.00000000e-03
2.00000000e-03
2.00000000e-03
2.00000000e-03
2.00000000e-03
2.00000000e-03
2.00000000e-03
2.00000000e-03
2.00000000e-03
2.00000000e-03
2.00000000e-03
2.00000000e-03
2.00000000e-03
2.00000000e-03
2.00000000e-03
2.00000000e-03
2.00000000e-03
2.00000000e-03
2.00000000e-03
2.00000000e-03
2.00000000e-03
2.00000000e-03
2.00000000e-03
2.00000000e-03
2.00000000e-03
2.00000000e-03
2.00000000e-03
2.00000000e-03
2.00000000e-03
2.00000000e-03
2.00000000e-03
2.00000000e-03
2.00000000e-03
2.00000000e-03
2.00000000e-03
2.00000000e-03
2.00000000e-03
2.00000000e-03
2.00000000e-03
2.00000000e-03
2.00000000e-03
2.00000000e-03
2.00000000e-03
2.00000000e-03
2.00000000e-03
2.00000000e-03
2.00000000e-03
2.00000000e-03
2.00000000e-03
2.00000000e-03
2.00000000e-03
2.00000000e-03
2.00000000e-03
2.00000000e-03
2.00000000e-03
2.00000000e-03
2.00000000e-03
2.00000000e-03
2.00000000e-03
2.00000000e-03
2.00000000e-03
