# vtk DataFile Version 2.0
Particle data
ASCII
DATASET POLYDATA
POINTS 469 double
3.74170421e-02	-1.05165029e-03	1.42909216e-02
2.96638831e-02	2.10846854e-04	1.33322019e-02
2.92669261e-02	-2.67642984e-02	1.47105013e-02
9.51513657e-03	-1.30335452e-02	1.00315623e-02
2.86237076e-02	6.00120864e-03	3.03011559e-03
3.45565295e-02	-1.01634643e-02	2.33202825e-03
3.69543525e-02	-1.45571802e-02	1.81549706e-02
6.15884728e-03	-2.65759714e-02	1.73070817e-02
2.10747507e-02	-3.34834562e-02	1.67195323e-02
-8.74222499e-03	-3.49586135e-02	1.50757649e-02
3.68615030e-02	2.14831883e-03	7.07519475e-03
3.14328528e-02	-4.07524138e-03	1.74019407e-02
5.06353104e-03	-3.97482054e-02	8.15875210e-03
2.80886789e-02	-1.51319186e-03	5.33651955e-03
3.43457554e-02	6.44789293e-03	1.36451438e-02
-5.81514830e-04	-2.17895604e-02	1.08676213e-02
1.93959261e-02	-1.15787237e-02	8.22377477e-03
3.08339171e-02	-1.03999741e-02	2.12924906e-03
1.80351743e-02	-1.49487308e-02	1.50175527e-02
3.84897810e-02	-5.87335084e-03	4.70452382e-03
3.55571947e-02	7.18728866e-03	1.92589460e-03
2.39910247e-02	-2.68873217e-02	1.80317941e-02
6.57851455e-03	2.00263250e-03	2.43205085e-03
2.90838797e-02	-2.27570090e-02	5.35269322e-03
3.05335990e-02	-1.82389152e-02	5.30473012e-03
-1.60799223e-02	-3.76871706e-02	1.41701172e-02
3.59124555e-02	9.87180586e-03	1.56683537e-02
3.05375171e-02	-1.86280897e-02	1.74112945e-02
9.78974646e-03	-4.84943055e-03	8.67070169e-03
5.87918628e-03	-3.44061899e-02	1.87656177e-02
3.09155458e-02	-2.87153242e-03	8.63071611e-03
2.00298072e-02	-3.32175090e-02	9.00659138e-03
2.93826786e-02	-9.03843288e-03	8.08340779e-03
2.05466844e-02	-2.31483213e-02	1.51036045e-02
3.86667218e-03	-3.71488846e-02	8.49778492e-03
2.39950103e-02	-1.53634161e-02	1.52485485e-02
3.94403498e-02	-4.60717130e-03	1.01385382e-02
2.86278029e-02	1.70039108e-02	9.43653497e-03
3.27658612e-02	-8.97621128e-03	1.39352877e-02
3.23306238e-02	-3.76748664e-03	4.88016152e-03
2.02737556e-02	3.15194402e-03	1.41163265e-02
2.91944691e-02	-1.95093459e-02	1.58245082e-02
1.35215568e-03	-3.38041203e-02	3.13268223e-03
3.75288442e-02	1.46341991e-03	1.73740254e-02
1.64166104e-02	-2.38181978e-02	1.39007146e-02
3.54539290e-02	7.21381315e-03	1.11543464e-02
2.42136185e-02	-4.79809830e-03	1.51582878e-02
3.03691495e-02	9.30749436e-03	1.47641181e-02
1.84867063e-02	-1.28593576e-02	1.38510808e-02
3.88051832e-02	1.86863222e-04	1.75724954e-02
6.82498335e-03	-1.84599988e-02	2.23246118e-03
2.09335697e-02	-2.08559360e-03	1.24064820e-02
3.24917259e-02	1.54113070e-02	1.26145014e-02
1.10143808e-02	-1.96167277e-02	1.69896133e-03
3.45980997e-03	-2.78298097e-02	6.18624388e-03
-3.78515755e-03	-2.06670791e-02	1.71081287e-02
-2.08465777e-03	-2.93581201e-02	6.44065751e-03
3.04306859e-02	9.22911161e-03	1.81535560e-02
1.06742115e-02	-3.12902618e-02	1.45069326e-02
7.05943056e-03	-3.31333061e-02	1.40137776e-02
1.13775727e-02	-3.59700528e-02	1.16165840e-02
2.22333446e-02	-2.28227004e-02	1.23926555e-02
1.31636303e-02	-1.73760359e-02	1.78061241e-02
2.96096242e-03	-1.02431823e-02	1.11925462e-02
2.66190803e-02	-2.07239711e-02	3.74707812e-03
3.28512197e-02	8.03453010e-03	6.50090203e-03
-1.23931246e-02	-3.64872190e-02	6.73808625e-03
3.00754667e-02	-1.12980875e-02	1.62541183e-02
2.43211572e-03	-3.26844993e-02	6.98261978e-03
9.67980746e-03	-3.65622753e-02	2.91906068e-03
1.96680127e-02	2.88472130e-03	9.50519823e-03
1.92716634e-02	-3.28942297e-02	5.78246501e-03
4.00418733e-02	-1.59867244e-04	1.76094859e-02
3.69121470e-02	-4.72771231e-03	1.38485100e-02
2.84095870e-02	-2.68790427e-02	2.61514693e-03
1.58410686e-02	3.11145824e-03	1.84211686e-02
9.76968168e-03	-3.42511453e-02	5.83709638e-03
3.84790346e-02	-1.23943357e-02	5.53516258e-03
5.68833539e-03	-4.04991580e-02	1.87613646e-02
9.53194928e-04	-1.80135057e-02	1.61282521e-02
3.10213982e-02	1.07959269e-02	9.28628891e-03
2.14423454e-02	-8.17986058e-03	1.02311681e-02
1.50848959e-02	-2.47722050e-02	7.33299598e-03
1.83536619e-02	-2.44748515e-02	1.79274480e-02
1.55743702e-02	-3.19056509e-02	3.41239761e-03
3.94643626e-02	6.18657851e-03	1.83600764e-03
2.52838438e-02	1.39071955e-03	1.72523921e-02
5.95633069e-03	-6.65772744e-03	1.00610693e-02
2.28085215e-02	-2.34707547e-02	6.46401442e-03
7.51304104e-03	-2.68594085e-02	6.23012425e-03
3.75222093e-02	8.81740206e-03	1.21763556e-02
3.54420604e-02	2.90993248e-03	3.48263207e-03
2.68214282e-02	-2.98999356e-02	9.39029528e-03
3.55097659e-02	1.15074982e-02	2.68285959e-03
2.84741819e-02	-1.33092618e-02	1.09411731e-02
1.70526579e-02	-3.63907019e-02	1.74131683e-02
1.40969931e-02	8.03706127e-03	1.10415020e-02
-3.10499927e-03	-3.62451238e-02	1.32222330e-02
2.35499150e-02	-2.27063432e-02	1.03042226e-02
3.19963724e-02	-9.31874759e-03	1.03504507e-02
2.82802873e-03	-3.42189110e-02	1.16511810e-02
1.26726262e-02	-1.68501401e-02	1.86502545e-02
1.85101489e-02	7.49912537e-03	1.68564661e-02
1.86035504e-02	-2.98537638e-02	1.56357567e-02
6.79545575e-03	-3.65533930e-02	1.61402622e-02
3.96425889e-02	7.80144113e-03	1.20627250e-02
2.18404751e-02	-1.82643711e-02	8.31018417e-03
9.21297180e-03	-3.21033739e-02	9.94686841e-03
3.29030507e-03	-2.69764568e-02	2.31692293e-03
3.21954685e-02	-9.89422156e-04	9.44386395e-03
-4.50296802e-03	-2.99732893e-02	5.94023975e-03
3.43805229e-02	1.20586385e-02	1.84442224e-02
2.55559811e-02	1.65674849e-02	1.85854488e-02
1.11837260e-02	-1.90792699e-02	6.92336954e-03
9.48495377e-03	-3.87090386e-02	1.81441145e-02
1.25112823e-03	-3.74811778e-02	1.70320541e-03
3.65594283e-02	6.93167839e-03	1.46743270e-02
-7.01216032e-03	-2.40179001e-02	5.08618914e-03
2.54277765e-02	-2.15852542e-04	7.76753166e-03
3.59996712e-02	-1.78000283e-02	2.17909370e-03
3.26783206e-02	1.31914220e-02	2.50683123e-03
2.02818478e-02	-2.60256847e-02	1.16208691e-02
3.76268794e-02	-8.80779908e-03	1.69948710e-02
5.67295240e-03	-3.78974508e-02	8.58546832e-04
2.49999364e-02	-3.10507352e-02	1.79329241e-02
4.04879185e-02	3.96273259e-03	1.37344472e-02
3.65840497e-02	-1.23365739e-02	5.29696081e-03
3.57160896e-02	-9.71351132e-03	1.25992569e-02
-4.06996037e-03	-2.16638968e-02	1.34368687e-02
2.45075530e-02	1.30753188e-02	2.26500092e-03
4.07402610e-03	-1.08569636e-02	1.85470797e-03
1.49819684e-02	-3.57395656e-02	9.98714698e-03
3.20979211e-02	5.73350930e-03	1.85942640e-02
3.51785528e-02	-1.62111517e-02	7.63956561e-03
2.44235289e-02	-1.11151352e-02	6.34343153e-03
5.72390776e-03	-4.00488210e-02	1.20296119e-02
2.82415941e-02	-4.87390191e-03	7.79719268e-03
3.78963005e-02	-1.35507469e-02	3.21679256e-03
1.53554060e-02	-3.56450626e-02	1.18540191e-02
2.15738138e-02	-1.27764467e-02	1.81784023e-02
2.72453441e-03	-3.74783180e-02	1.82954201e-02
3.94576241e-02	2.23478580e-03	9.83747785e-03
2.07238279e-02	-4.32573338e-03	1.40431906e-02
3.39347476e-02	1.49787800e-02	1.99941993e-03
3.49527412e-02	-7.56421849e-03	6.53377358e-03
3.89523983e-02	-2.93672676e-03	2.23175578e-03
6.15656222e-03	-3.24526368e-03	2.66168837e-03
3.28158866e-02	-3.74201579e-03	1.89224047e-03
2.28139105e-02	-1.26258948e-02	1.04465288e-02
-3.63595864e-03	-3.96705978e-02	1.81111937e-02
2.81199663e-02	1.44921808e-02	1.76475918e-02
1.84267879e-02	-2.35173881e-02	8.85670316e-03
3.39556073e-02	-9.49700916e-03	1.01014809e-02
2.89379431e-02	8.20857858e-03	1.37201842e-02
9.66364289e-03	-1.76447676e-02	4.35649438e-03
-1.09998072e-02	-2.62510286e-02	1.43239520e-02
3.50007257e-02	-1.36069329e-02	1.55079094e-03
2.08699143e-02	-2.36157835e-04	5.03149803e-03
9.72296246e-03	-4.06993179e-02	1.84394609e-02
3.04026215e-02	-3.98425396e-03	3.61098193e-03
3.21954211e-02	-1.91611657e-02	8.98186809e-03
3.94521878e-02	-7.19072657e-03	2.62705577e-03
1.26339185e-02	-2.95196821e-02	7.19284040e-03
2.35501553e-02	1.41601790e-02	1.92648132e-02
1.55090338e-02	-2.19630459e-02	5.66257625e-03
3.11653436e-02	-4.48591144e-03	1.26821002e-02
6.62874071e-03	-2.59567618e-02	8.00809374e-03
3.78876476e-02	-1.19411099e-02	9.00603678e-03
3.49384561e-03	-1.16948276e-02	1.76750274e-02
1.60034651e-03	-1.13650598e-02	7.82610992e-03
3.44817506e-02	-1.98431431e-02	1.68690005e-02
-5.97400551e-03	-3.89682643e-02	3.35065277e-03
3.01165213e-02	1.97067654e-02	1.82190541e-02
3.12077126e-02	5.29048977e-04	1.68634072e-02
3.83034547e-02	-6.43464915e-03	1.80757056e-02
2.99093461e-02	-2.72492451e-02	9.47378290e-03
2.44101421e-02	-1.82578676e-02	1.63110208e-03
1.64071453e-02	-3.40582591e-02	9.58717051e-03
2.65592074e-02	-2.57740762e-02	1.56718617e-02
2.22741026e-02	-3.04904034e-02	4.89299993e-03
1.19006122e-02	1.77836366e-03	5.08622012e-03
2.62078201e-02	-1.78944194e-02	6.38501279e-03
3.90017612e-02	7.75021151e-03	1.80991208e-02
2.79837534e-02	2.18795191e-02	1.31074177e-02
2.50954754e-02	-1.86307021e-02	1.82672400e-02
3.42137431e-02	-1.37299232e-02	1.03603475e-02
2.26697867e-02	5.68030009e-03	1.92953471e-03
3.02564473e-02	-1.82430666e-02	1.16343534e-02
3.53508695e-02	-3.56607155e-03	1.81143218e-02
3.19508219e-02	-1.39625227e-02	3.12359505e-03
5.67555689e-03	-2.58687155e-02	1.06125703e-02
1.47208367e-02	-1.89755823e-02	1.77022119e-02
1.71843768e-02	7.95349158e-03	1.49199709e-02
3.64755721e-02	1.58633168e-02	1.86037529e-02
2.61578792e-02	8.39873069e-03	3.11788535e-03
1.87279107e-03	-2.37489812e-02	1.17091446e-02
2.29104915e-02	-2.48963946e-02	1.38603349e-02
1.98974470e-02	-2.00711193e-02	9.73497340e-03
2.06788055e-02	-2.75665879e-03	7.95779354e-03
-5.40593762e-03	-3.38044530e-02	1.40280488e-02
3.30375874e-02	8.82312578e-03	1.44051304e-02
2.66106411e-02	1.24472754e-02	1.48520906e-02
1.32821100e-02	-1.71880059e-03	1.82485217e-02
2.21028191e-02	-2.88493815e-02	1.36364660e-02
-1.42963270e-03	-3.31770313e-02	1.76701928e-02
2.34513072e-02	9.39806839e-03	5.89093792e-03
1.33640140e-02	-3.96444400e-03	1.61788438e-02
2.90497543e-02	1.10653314e-02	5.06478583e-03
2.91948069e-02	-4.35196438e-03	1.51151093e-02
1.58544238e-02	-6.51824341e-03	1.36656271e-02
4.61593803e-03	-3.76834193e-02	1.50653298e-02
7.26191001e-03	-2.41185440e-02	1.97243229e-03
-2.58272114e-04	-4.11661007e-02	1.50693717e-02
1.73516283e-02	-2.89030816e-02	1.64991165e-02
2.00317075e-02	-1.10135935e-02	1.81867394e-02
2.39260402e-02	-1.13592226e-02	3.07551322e-03
[...]
POINT_DATA 469
SCALARS Radius double 1
LOOKUP_TABLE default
2.00000000e-03
2.00000000e-03
2.00000000e-03
2.00000000e-03
2.00000000e-03
2.00000000e-03
2.00000000e-03
2.00000000e-03
2.00000000e-03
2.00000000e-03
2.00000000e-03
2.00000000e-03
2.00000000e-03
2.00000000e-03
2.00000000e-03
2.00000000e-03
2.00000000e-03
2.00000000e-03
2.00000000e-03
2.00000000e-03
2.00000000e-03
2.00000000e-03
2.00000000e-03
2.00000000e-03
2.00000000e-03
2.00000000e-03
2.00000000e-03
2.00000000e-03
2.00000000e-03
2.00000000e-03
2.00000000e-03
2.00000000e-03
2.00000000e-03
2.00000000e-03
2.00000000e-03
2.00000000e-03
2.00000000e-03
2.00000000e-03
2.00000000e-03
2.00000000e-03
2.00000000e-03
2.00000000e-03
2.00000000e-03
2.00000000e-03
2.00000000e-03
2.00000000e-03
2.00000000e-03
2.00000000e-03
2.00000000e-03
2.00000000e-03
2.00000000e-03
2.00000000e-03
2.00000000e-03
2.00000000e-03
2.00000000e-03
2.00000000e-03
2.00000000e-03
2.00000000e-03
2.00000000e-03
2.00000000e-03
2.00000000e-03
2.00000000e-03
2.00000000e-03
2.00000000e-03
2.00000000e-03
2.00000000e-03
2.00000000e-03
2.00000000e-03
2.00000000e-03
2.00000000e-03
2.00000000e-03
2.00000000e-03
2.00000000e-03
2.00000000e-03
2.00000000e-03
2.00000000e-03
2.00000000e-03
2.00000000e-03
2.00000000e-03
2.00000000e-03
2.00000000e-03
2.00000000e-03
2.00000000e-03
2.00000000e-03
2.00000000e-03
2.00000000e-03
2.00000000e-03
2.00000000e-03
2.00000000e-03
2.00000000e-03
2.00000000e-03
2.00000000e-03
2.00000000e-03
2.00000000e-03
2.00000000e-03
2.00000000e-03
2.00000000e-03
2.00000000e-03
2.00000000e-03
2.00000000e-03
2.00000000e-03
2.00000000e-03
2.00000000e-03
2.00000000e-03
2.00000000e-03
2.00000000e-03
2.00000000e-03
2.00000000e-03
2.00000000e-03
2.00000000e-03
2.00000000e-03
2.00000000e-03
2.00000000e-03
2.00000000e-03
2.00000000e-03
2.00000000e-03
2.00000000e-03
2.00000000e-03
2.00000000e-03
2.00000000e-03
2.00000000e-03
2.00000000e-03
2.00000000e-03
2.00000000e-03
2.00000000e-03
2.00000000e-03
2.00000000e-03
2.00000000e-03
2.00000000e-03
2.00000000e-03
2.00000000e-03
2.00000000e-03
2.00000000e-03
2.00000000e-03
2.00000000e-03
2.00000000e-03
2.00000000e-03
2.00000000e-03
2.00000000e-03
2.00000000e-03
2.00000000e-03
2.00000000e-03
2.00000000e-03
2.00000000e-03
2.00000000e-03
2.00000000e-03
2.00000000e-03
2.00000000e-03
2.00000000e-03
2.00000000e-03
2.00000000e-03
2.00000000e-03
2.00000000e-03
2.00000000e-03
2.00000000e-03
2.00000000e-03
2.00000000e-03
2.00000000e-03
2.00000000e-03
2.00000000e-03
2.00000000e-03
2.00000000e-03
2.00000000e-03
2.00000000e-03
2.00000000e-03
2.00000000e-03
2.00000000e-03
2.00000000e-03
2.00000000e-03
2.00000000e-03
2.00000000e-03
2.00000000e-03
2.00000000e-03
2.00000000e-03
2.00000000e-03
2.00000000e-03
2.00000000e-03
2.00000000e-03
2.00000000e-03
2.00000000e-03
2.00000000e-03
2.00000000e-03
2.00000000e-03
2.00000000e-03
2.00000000e-03
2.00000000e-03
2.00000000e-03
2.00000000e-03
2.00000000e-03
2.00000000e-03
2.00000000e-03
2.00000000e-03
2.00000000e-03
2.00000000e-03
2.00000000e-03
2.00000000e-03
2.00000000e-03
2.00000000e-03
2.00000000e-03
2.00000000e-03
2.00000000e-03
2.00000000e-03
2.00000000e-03
2.00000000e-03
2.00000000e-03
2.00000000e-03
2.00000000e-03
2.00000000e-03
2.00000000e-03
2.00000000e-03
2.00000000e-03
2.00000000e-03
2.00000000e-03
2.00000000e-03
2.00000000e-03
2.00000000e-03
2.00000000e-03
2.00000000e-03
2.00000000e-03
2.00000000e-03
2.00000000e-03
2.00000000e-03
2.00000000e-03
2.00000000e-03
2.00000000e-03
2.00000000e-03
2.00000000e-03
2.00000000e-03
2.00000000e-03
2.00000000e-03
2.00000000e-03
2.00000000e-03
2.00000000e-03
2.00000000e-03
2.00000000e-03
2.00000000e-03
2.00000000e-03
2.00000000e-03
2.00000000e-03
2.00000000e-03
2.00000000e-03
2.00000000e-03
2.00000000e-03
2.00000000e-03
2.00000000e-03
2.00000000e-03
2.00000000e-03
2.00000000e-03
2.00000000e-03
2.00000000e-03
2.00000000e-03
2.00000000e-03
2.00000000e-03
2.00000000e-03
2.00000000e-03
2.00000000e-03
2.00000000e-03
2.00000000e-03
2.00000000e-03
2.00000000e-03
2.00000000e-03
2.00000000e-03
2.00000000e-03
2.00000000e-03
2.00000000e-03
2.00000000e-03
2.00000000e-03
2.00000000e-03
2.00000000e-03
2.00000000e-03
2.00000000e-03
2.00000000e-03
2.00000000e-03
2.00000000e-03
2.00000000e-03
2.00000000e-03
2.00000000e-03
2.00000000e-03
2.00000000e-03
2.00000000e-03
2.00000000e-03
2.00000000e-03
2.00000000e-03
2.00000000e-03
2.00000000e-03
2.00000000e-03
2.00000000e-03
2.00000000e-03
2.00000000e-03
2.00000000e-03
2.00000000e-03
2.00000000e-03
2.00000000e-03
2.00000000e-03
2.00000000e-03
2.00000000e-03
2.00000000e-03
2.00000000e-03
2.00000000e-03
2.00000000e-03
2.00000000e-03
2.00000000e-03
2.00000000e-03
2.00000000e-03
2.00000000e-03
2.00000000e-03
2.00000000e-03
2.00000000e-03
2.00000000e-03
2.00000000e-03
2.00000000e-03
2.00000000e-03
2.00000000e-03
2.00000000e-03
2.00000000e-03
2.00000000e-03
2.00000000e-03
2.00000000e-03
2.00000000e-03
2.00000000e-03
2.00000000e-03
2.00000000e-03
2.00000000e-03
2.00000000e-03
2.00000000e-03
2.00000000e-03
2.00000000e-03
2.00000000e-03
2.00000000e-03
2.00000000e-03
2.00000000e-03
2.00000000e-03
2.00000000e-03
2.00000000e-03
2.00000000e-03
2.00000000e-03
2.00000000e-03
2.00000000e-03
2.00000000e-03
2.00000000e-03
2.00000000e-03
2.00000000e-03
2.00000000e-03
2.00000000e-03
2.00000000e-03
2.00000000e-03
2.00000000e-03
2.00000000e-03
2.00000000e-03
2.00000000e-03
2.00000000e-03
2.00000000e-03
2.00000000e-03
2.00000000e-03
2.00000000e-03
2.00000000e-03
2.00000000e-03
2.00000000e-03
2.00000000e-03
2.00000000e-03
2.00000000e-03
2.00000000e-03
2.00000000e-03
2.00000000e-03
2.00000000e-03
2.00000000e-03
2.00000000e-03
2.00000000e-03
2.00000000e-03
2.00000000e-03
2.00000000e-03
2.00000000e-03
2.00000000e-03
2.00000000e-03
2.00000000e-03
2.00000000e-03
2.00000000e-03
2.00000000e-03
2.00000000e-03
2.00000000e-03
2.00000000e-03
2.00000000e-03
2.00000000e-03
2.00000000e-03
2.00000000e-03
2.00000000e-03
2.00000000e-03
2.00000000e-03
2.00000000e-03
2.00000000e-03
2.00000000e-03
2.00000000e-03
2.00000000e-03
2.00000000e-03
2.00000000e-03
2.00000000e-03
2.00000000e-03
2.00000000e-03
2.00000000e-03
2.00000000e-03
2.00000000e-03
2.00000000e-03
2.00000000e-03
2.00000000e-03
2.00000000e-03
2.00000000e-03
2.00000000e-03
2.00000000e-03
2.00000000e-03
2.00000000e-03
2.00000000e-03
2.00000000e-03
2.00000000e-03
2.00000000e-03
2.00000000e-03
2.00000000e-03
2.00000000e-03
2.00000000e-03
2.00000000e-03
2.00000000e-03
2.00000000e-03
2.00000000e-03
2.00000000e-03
2.00000000e-03
2.00000000e-03
2.00000000e-03
2.00000000e-03
2.00000000e-03
2.00000000e-03
2.00000000e-03
2.00000000e-03
2.00000000e-03
2.00000000e-03
2.00000000e-03
2.00000000e-03
2.00000000e-03
2.00000000e-03
2.00000000e-03
2.00000000e-03
2.00000000e-03
2.00000000e-03
2.00000000e-03
2.00000000e-03
2.00000000e-03
2.00000000e-03
2.00000000e-03
2.00000000e-03
2.00000000e-03
2.00000000e-03
2.00000000e-03
2.00000000e-03
2.00000000e-03
2.00000000e-03
2.00000000e-03
2.00000000e-03
2.00000000e-03
2.00000000e-03
2.00000000e-03
2.00000000e-03
2.00000000e-03
2.00000000e-03
2.00000000e-03
2.00000000e-03
2.00000000e-03
2.00000000e-03
2.00000000e-03
2.00000000e-03
2.00000000e-03
2.00000000e-03
