# vtk DataFile Version 2.0
Particle data
ASCII
DATASET POLYDATA
POINTS 469 double
2.98812413e-02	1.63985139e-02	1.47287616e-02
1.19699866e-02	-7.73095231e-03	1.26157884e-02
3.76646165e-02	-6.76177203e-03	1.47400376e-02
1.59149016e-02	-2.22343172e-02	1.25071916e-02
2.32922107e-03	-2.36849643e-02	7.89635692e-03
3.02144689e-02	9.17956374e-03	1.92766108e-03
3.85501800e-02	8.22962754e-03	1.67045170e-02
1.92855484e-02	-2.10793771e-02	1.71047168e-02
3.41773762e-02	-1.94733058e-02	1.70436071e-02
1.14738486e-02	-3.83190666e-02	1.49804976e-02
2.71770688e-02	1.31049583e-02	5.41614846e-03
2.68889940e-02	1.20607294e-02	1.71446560e-02
2.74724321e-02	-2.79516081e-02	7.41070358e-03
1.30897953e-02	-1.78932062e-02	1.01019819e-02
1.30470721e-02	-2.43885354e-03	1.22185919e-02
9.48470565e-03	-3.58429654e-02	1.10317232e-02
2.00716099e-02	-6.67127170e-03	1.19697870e-02
3.08609581e-02	6.39489501e-03	1.96609612e-03
2.25403105e-02	-5.55875802e-03	1.38849458e-02
3.29949043e-02	1.10175204e-02	4.90237873e-03
2.54837736e-02	1.77582899e-02	2.12622639e-03
3.51822211e-02	-8.74881794e-03	1.77891598e-02
-2.84812469e-03	-4.00192930e-02	2.09152117e-03
3.67932295e-02	-3.19010239e-03	5.27971904e-03
3.46053016e-02	3.67589673e-03	5.55739927e-03
5.84164150e-03	-3.97511911e-02	1.36056867e-02
8.81406967e-03	-8.91939101e-03	1.71321526e-02
3.64391664e-02	2.12903906e-03	1.81480428e-02
6.04273296e-03	-3.29282284e-02	2.82344461e-03
2.47520086e-02	-2.28937773e-02	1.74399108e-02
2.14228313e-02	2.92052086e-03	7.63294110e-03
3.30683393e-02	-1.61834594e-02	9.20654701e-03
2.42110027e-02	-2.33536173e-03	7.55447074e-03
2.96234450e-02	-4.62221855e-03	1.50443647e-02
2.62545486e-02	-2.60366521e-02	8.92135874e-03
2.91508720e-02	-1.24528056e-04	1.44857368e-02
3.64125767e-02	1.33826193e-02	9.00445653e-03
-1.69979791e-02	-3.37346220e-02	1.09634330e-02
2.79906599e-02	8.36302060e-03	1.42021293e-02
2.47012344e-02	4.10078036e-03	2.45769916e-03
-5.06693889e-03	-3.58686563e-02	1.61586176e-02
3.48760231e-02	-3.00951438e-03	1.61844807e-02
2.02610782e-02	-2.60493412e-02	1.34368966e-03
2.74543999e-02	1.80715899e-02	1.75705204e-02
2.72958909e-02	-9.33314167e-03	1.42660239e-02
2.16670219e-02	8.56070516e-03	1.20250055e-02
1.32260794e-02	-7.86501879e-03	1.75182524e-02
2.13848697e-03	-2.12865689e-02	1.35266789e-02
1.56435088e-02	-1.27906117e-02	1.45947471e-02
3.04689110e-02	2.23913915e-02	1.74136177e-02
1.26055115e-02	-2.70290349e-02	2.06142088e-03
1.46277745e-02	-1.42786535e-02	1.87387620e-02
-7.33479411e-03	-2.63203799e-02	1.40953703e-02
1.97051164e-02	-1.74167090e-02	2.20421857e-03
1.81800175e-02	-2.43758637e-02	5.60999089e-03
2.43245597e-04	-4.11429276e-02	1.84941419e-02
1.42610058e-02	-3.11256549e-02	5.85679185e-03
-1.51854854e-03	-2.10332830e-02	1.80066820e-02
2.70520406e-02	-1.67235119e-02	1.46942315e-02
2.69052194e-02	-2.00246594e-02	1.41509966e-02
3.00286187e-02	-1.84843239e-02	1.19327749e-02
3.06274847e-02	-4.40776268e-03	1.24884291e-02
2.04652312e-02	-1.29011262e-02	1.85240721e-02
4.62744566e-03	-3.56951469e-02	1.33402276e-02
3.30177245e-02	-8.55475446e-04	3.64953553e-03
1.84831041e-02	7.28304908e-03	5.14612905e-03
3.86874835e-03	-3.75104622e-02	6.11004021e-03
2.87631377e-02	3.45330772e-03	1.69272766e-02
2.16909600e-02	-2.64375790e-02	6.43609926e-03
3.04135906e-02	-1.79060244e-02	2.26593403e-03
-1.90577510e-03	-3.42514486e-02	1.29361977e-02
3.45886562e-02	-1.47809382e-02	6.14530600e-03
3.20757423e-02	1.92348749e-02	1.73769346e-02
3.30018807e-02	1.33437314e-02	1.44565992e-02
3.65960030e-02	-6.46173720e-03	2.70503068e-03
-3.02643509e-03	-3.51294841e-02	1.78571447e-02
2.60978730e-02	-2.48135626e-02	5.36848601e-03
3.73436216e-02	9.38816269e-03	4.37467464e-03
2.75507167e-02	-2.72848631e-02	1.82490650e-02
1.02068908e-02	-3.49529895e-02	1.46115330e-02
-5.22578029e-03	-2.77783612e-02	1.68424000e-02
8.22536512e-03	-2.18303155e-02	1.30696412e-02
2.62601283e-02	-1.13423575e-02	8.68308114e-03
2.83915032e-02	-6.36966965e-03	1.79551247e-02
3.23654938e-02	-1.58984320e-02	4.24644378e-03
2.65990678e-02	2.45974506e-02	1.70044189e-03
9.03707072e-03	-1.37129417e-02	1.74196903e-02
-1.16347784e-02	-4.08258360e-02	2.39392344e-03
3.30357502e-02	-1.89341197e-03	5.92643543e-03
2.06517216e-02	-1.94838060e-02	6.03500967e-03
1.94492783e-02	6.21724387e-03	1.42815772e-02
2.44284102e-02	1.21823287e-02	3.78239883e-03
3.59522549e-02	-1.32739475e-02	1.00295730e-02
2.13246394e-02	1.50024214e-02	7.81057549e-03
2.97205047e-02	1.75829178e-03	1.10567459e-02
3.14491752e-02	-2.33101066e-02	1.69150422e-02
3.35536828e-03	-3.70990295e-02	9.20912354e-03
1.81537567e-02	-3.12249866e-02	1.44316188e-02
3.32204553e-02	-4.35529345e-03	1.08465272e-02
2.86002437e-02	6.80326690e-03	9.78343806e-03
2.24365376e-02	-2.73285630e-02	1.20962231e-02
1.99916453e-02	-1.01442822e-02	1.82965930e-02
1.52970431e-03	-3.58151199e-02	1.21864127e-02
3.20078734e-02	-1.28069613e-02	1.49483661e-02
2.77546802e-02	-2.40904748e-02	1.57535038e-02
2.59847887e-02	2.07597934e-02	1.11033986e-02
2.78450919e-02	-5.06294351e-03	9.21241663e-03
2.68560427e-02	-2.23215704e-02	9.57746662e-03
2.03369074e-02	-2.25784981e-02	1.21222612e-03
1.60070381e-02	-2.55230019e-03	6.66635080e-03
1.08490684e-02	-3.87371207e-02	3.74280687e-03
1.57991575e-02	7.94173104e-03	1.86955570e-02
-1.16729664e-02	-3.07764122e-02	1.30229978e-02
1.84232606e-02	-1.84774148e-02	7.87680643e-03
3.08341463e-02	-2.04479434e-02	1.84808972e-02
2.33469487e-02	-2.82365472e-02	1.72442137e-03
2.38370578e-02	1.40918027e-02	1.25438963e-02
6.33345902e-03	-3.98308649e-02	2.79720129e-03
8.93386545e-03	-2.66339772e-02	2.06376925e-03
3.86342510e-02	1.85219236e-03	1.91801869e-03
1.07983518e-02	-6.43792535e-03	2.64937325e-03
3.33079931e-02	-7.70920425e-03	1.23655120e-02
3.41104915e-02	9.11982137e-03	1.68807240e-02
2.76736219e-02	-2.27681688e-02	1.10942611e-03
3.83529487e-02	-1.14569933e-02	1.81934036e-02
2.69078166e-02	1.76575862e-02	1.24570096e-02
3.30007508e-02	4.95680671e-03	4.68144361e-03
3.28054818e-02	7.50687148e-03	1.29881906e-02
-8.98514916e-04	-4.27594738e-02	1.46062026e-02
-3.08526583e-03	-3.06373212e-02	2.13478864e-03
3.00644345e-03	-3.87211633e-02	2.63846393e-03
3.43509358e-02	-1.92338793e-02	9.49957797e-03
-3.34140481e-03	-1.97030912e-02	1.26010874e-02
3.61106728e-02	3.38501487e-03	7.99333596e-03
2.50438317e-02	-2.51101686e-03	8.43302000e-03
2.69820190e-02	-2.86403664e-02	1.41732335e-02
1.42849417e-02	-5.54691689e-03	1.23665632e-02
3.58163546e-02	6.40676762e-03	3.14122622e-03
3.31833292e-02	-1.69663893e-02	1.24070715e-02
2.46565018e-02	1.35923069e-03	1.84606487e-02
2.50374223e-02	-2.58218903e-02	1.81788429e-02
3.04664031e-02	2.05165714e-02	1.06739969e-02
1.52287748e-02	-3.96602078e-03	1.54800365e-02
5.02701066e-03	-1.41800072e-02	9.37276183e-03
3.21043087e-02	1.20809067e-02	6.02803162e-03
3.35774871e-02	1.33433588e-02	2.56197243e-03
-6.20285146e-03	-3.81921217e-02	5.03766989e-03
2.51026814e-02	3.83020752e-03	2.15345782e-03
2.15795334e-02	-8.55682802e-03	1.05703966e-02
2.14888345e-02	-3.32342229e-02	1.95748617e-02
5.30758748e-03	-2.48725922e-02	1.60968104e-02
2.87794193e-02	-9.88793839e-03	8.27368557e-03
3.00409431e-02	6.20142525e-03	9.61409412e-03
2.84551967e-03	-2.11829938e-02	1.65925563e-02
1.43793145e-02	-2.28012776e-02	2.40302578e-03
-4.72960358e-04	-3.97011430e-02	1.46591875e-02
3.29553771e-02	4.02536209e-03	1.90547776e-03
1.07814148e-02	-2.68330056e-02	4.31689298e-03
2.98544790e-02	-2.47554201e-02	1.90416599e-02
2.08865277e-02	-1.74634043e-03	2.57710373e-03
3.50106997e-02	2.23406690e-03	9.32486323e-03
3.38267785e-02	1.10275442e-02	2.37829205e-03
2.71376195e-02	-1.46177403e-02	7.21592519e-03
-9.05269357e-03	-3.55493378e-02	1.91354771e-02
2.50159821e-02	-8.93851006e-03	6.32033022e-03
2.41745713e-02	2.88678280e-03	1.11405611e-02
1.60409069e-02	-2.20798698e-02	8.31410133e-03
3.61316667e-02	7.88886002e-03	1.00167086e-02
1.08181674e-02	-3.45815701e-02	1.70661817e-02
4.63753819e-03	-4.17139530e-02	6.98436201e-03
3.53971227e-02	-1.43366188e-03	1.68804327e-02
2.19705672e-02	-3.34258544e-02	3.04929879e-03
3.03812185e-03	-2.29860641e-02	1.77112066e-02
2.61587171e-02	1.12554404e-02	1.59485223e-02
3.40064392e-02	1.39341054e-02	1.81164977e-02
3.83976487e-02	-7.93439992e-03	7.88050795e-03
2.91927325e-02	-2.95385789e-04	1.12668593e-03
3.32025107e-02	-1.59638479e-02	8.97965523e-03
3.55802168e-02	-8.16040560e-03	1.48575914e-02
3.28192768e-02	-1.37263406e-02	5.37993159e-03
7.25660127e-03	-3.20706548e-02	7.89602109e-03
3.29382686e-02	2.96459531e-03	7.31794069e-03
2.28994536e-02	2.31584192e-02	1.69279170e-02
-6.43280792e-03	-3.27296035e-02	1.41087245e-02
2.98102852e-02	1.76157522e-04	1.87310136e-02
3.31891454e-02	3.66411901e-03	1.01376636e-02
1.78410035e-02	-6.71928746e-03	9.84736632e-04
3.53581213e-02	-6.85688952e-05	1.15617146e-02
2.90682977e-02	1.46526787e-02	1.74851498e-02
3.43083126e-02	4.21346181e-03	1.85496127e-03
1.93206926e-02	-2.63176379e-02	9.22585652e-03
2.27230240e-02	-7.67357456e-03	1.85304944e-02
-4.91567258e-03	-4.03087679e-02	4.11800078e-03
1.73994665e-02	7.46452824e-03	1.84977176e-02
8.31167826e-03	-1.85483242e-02	4.62565930e-03
1.08966164e-02	-2.97138506e-02	1.18635965e-02
3.34069387e-02	-6.74582534e-03	1.41832630e-02
2.84303024e-02	-6.60115799e-03	9.24003634e-03
1.36196233e-02	-2.15930752e-02	6.28493237e-03
1.36940572e-02	-3.69015060e-02	1.38197387e-02
5.63366868e-03	-1.44312701e-02	1.41661435e-02
1.26729921e-03	-2.67507920e-02	1.29871572e-02
1.16183695e-03	-3.77044820e-02	1.81868199e-02
3.55665264e-02	-8.85325159e-03	1.35593524e-02
1.81983409e-02	-3.39970075e-02	1.75690350e-02
-7.61414741e-04	-2.94986675e-02	6.23061228e-03
-3.97356880e-03	-3.74088592e-02	1.84407210e-02
1.22627074e-02	-9.81099918e-03	4.48033300e-03
2.28856671e-02	3.13430808e-03	1.38488963e-02
1.11540372e-02	-2.65664639e-02	1.62963008e-02
2.57304104e-02	-2.45234245e-02	1.54814161e-02
1.99433681e-02	-2.16478158e-02	2.59928652e-03
2.48208667e-02	-3.17432953e-02	1.54705649e-02
3.06911636e-02	-1.16871955e-02	1.76185069e-02
2.27449791e-02	-4.14756381e-03	1.83757291e-02
2.06576364e-02	2.20282689e-03	4.16671664e-03
[...]
POINT_DATA 469
SCALARS Radius double 1
LOOKUP_TABLE default
2.00000000e-03
2.00000000e-03
2.00000000e-03
2.00000000e-03
2.00000000e-03
2.00000000e-03
2.00000000e-03
2.00000000e-03
2.00000000e-03
2.00000000e-03
2.00000000e-03
2.00000000e-03
2.00000000e-03
2.00000000e-03
2.00000000e-03
2.00000000e-03
2.00000000e-03
2.00000000e-03
2.00000000e-03
2.00000000e-03
2.00000000e-03
2.00000000e-03
2.00000000e-03
2.00000000e-03
2.00000000e-03
2.00000000e-03
2.00000000e-03
2.00000000e-03
2.00000000e-03
2.00000000e-03
2.00000000e-03
2.00000000e-03
2.00000000e-03
2.00000000e-03
2.00000000e-03
2.00000000e-03
2.00000000e-03
2.00000000e-03
2.00000000e-03
2.00000000e-03
2.00000000e-03
2.00000000e-03
2.00000000e-03
2.00000000e-03
2.00000000e-03
2.00000000e-03
2.00000000e-03
2.00000000e-03
2.00000000e-03
2.00000000e-03
2.00000000e-03
2.00000000e-03
2.00000000e-03
2.00000000e-03
2.00000000e-03
2.00000000e-03
2.00000000e-03
2.00000000e-03
2.00000000e-03
2.00000000e-03
2.00000000e-03
2.00000000e-03
2.00000000e-03
2.00000000e-03
2.00000000e-03
2.00000000e-03
2.00000000e-03
2.00000000e-03
2.00000000e-03
2.00000000e-03
2.00000000e-03
2.00000000e-03
2.00000000e-03
2.00000000e-03
2.00000000e-03
2.00000000e-03
2.00000000e-03
2.00000000e-03
2.00000000e-03
2.00000000e-03
2.00000000e-03
2.00000000e-03
2.00000000e-03
2.00000000e-03
2.00000000e-03
2.00000000e-03
2.00000000e-03
2.00000000e-03
2.00000000e-03
2.00000000e-03
2.00000000e-03
2.00000000e-03
2.00000000e-03
2.00000000e-03
2.00000000e-03
2.00000000e-03
2.00000000e-03
2.00000000e-03
2.00000000e-03
2.00000000e-03
2.00000000e-03
2.00000000e-03
2.00000000e-03
2.00000000e-03
2.00000000e-03
2.00000000e-03
2.00000000e-03
2.00000000e-03
2.00000000e-03
2.00000000e-03
2.00000000e-03
2.00000000e-03
2.00000000e-03
2.00000000e-03
2.00000000e-03
2.00000000e-03
2.00000000e-03
2.00000000e-03
2.00000000e-03
2.00000000e-03
2.00000000e-03
2.00000000e-03
2.00000000e-03
2.00000000e-03
2.00000000e-03
2.00000000e-03
2.00000000e-03
2.00000000e-03
2.00000000e-03
2.00000000e-03
2.00000000e-03
2.00000000e-03
2.00000000e-03
2.00000000e-03
2.00000000e-03
2.00000000e-03
2.00000000e-03
2.00000000e-03
2.00000000e-03
2.00000000e-03
2.00000000e-03
2.00000000e-03
2.00000000e-03
2.00000000e-03
2.00000000e-03
2.00000000e-03
2.00000000e-03
2.00000000e-03
2.00000000e-03
2.00000000e-03
2.00000000e-03
2.00000000e-03
2.00000000e-03
2.00000000e-03
2.00000000e-03
2.00000000e-03
2.00000000e-03
2.00000000e-03
2.00000000e-03
2.00000000e-03
2.00000000e-03
2.00000000e-03
2.00000000e-03
2.00000000e-03
2.00000000e-03
2.00000000e-03
2.00000000e-03
2.00000000e-03
2.00000000e-03
2.00000000e-03
2.00000000e-03
2.00000000e-03
2.00000000e-03
2.00000000e-03
2.00000000e-03
2.00000000e-03
2.00000000e-03
2.00000000e-03
2.00000000e-03
2.00000000e-03
2.00000000e-03
2.00000000e-03
2.00000000e-03
2.00000000e-03
2.00000000e-03
2.00000000e-03
2.00000000e-03
2.00000000e-03
2.00000000e-03
2.00000000e-03
2.00000000e-03
2.00000000e-03
2.00000000e-03
2.00000000e-03
2.00000000e-03
2.00000000e-03
2.00000000e-03
2.00000000e-03
2.00000000e-03
2.00000000e-03
2.00000000e-03
2.00000000e-03
2.00000000e-03
2.00000000e-03
2.00000000e-03
2.00000000e-03
2.00000000e-03
2.00000000e-03
2.00000000e-03
2.00000000e-03
2.00000000e-03
2.00000000e-03
2.00000000e-03
2.00000000e-03
2.00000000e-03
2.00000000e-03
2.00000000e-03
2.00000000e-03
2.00000000e-03
2.00000000e-03
2.00000000e-03
2.00000000e-03
2.00000000e-03
2.00000000e-03
2.00000000e-03
2.00000000e-03
2.00000000e-03
2.00000000e-03
2.00000000e-03
2.00000000e-03
2.00000000e-03
2.00000000e-03
2.00000000e-03
2.00000000e-03
2.00000000e-03
2.00000000e-03
2.00000000e-03
2.00000000e-03
2.00000000e-03
2.00000000e-03
2.00000000e-03
2.00000000e-03
2.00000000e-03
2.00000000e-03
2.00000000e-03
2.00000000e-03
2.00000000e-03
2.00000000e-03
2.00000000e-03
2.00000000e-03
2.00000000e-03
2.00000000e-03
2.00000000e-03
2.00000000e-03
2.00000000e-03
2.00000000e-03
2.00000000e-03
2.00000000e-03
2.00000000e-03
2.00000000e-03
2.00000000e-03
2.00000000e-03
2.00000000e-03
2.00000000e-03
2.00000000e-03
2.00000000e-03
2.00000000e-03
2.00000000e-03
2.00000000e-03
2.00000000e-03
2.00000000e-03
2.00000000e-03
2.00000000e-03
2.00000000e-03
2.00000000e-03
2.00000000e-03
2.00000000e-03
2.00000000e-03
2.00000000e-03
2.00000000e-03
2.00000000e-03
2.00000000e-03
2.00000000e-03
2.00000000e-03
2.00000000e-03
2.00000000e-03
2.00000000e-03
2.00000000e-03
2.00000000e-03
2.00000000e-03
2.00000000e-03
2.00000000e-03
2.00000000e-03
2.00000000e-03
2.00000000e-03
2.00000000e-03
2.00000000e-03
2.00000000e-03
2.00000000e-03
2.00000000e-03
2.00000000e-03
2.00000000e-03
2.00000000e-03
2.00000000e-03
2.00000000e-03
2.00000000e-03
2.00000000e-03
2.00000000e-03
2.00000000e-03
2.00000000e-03
2.00000000e-03
2.00000000e-03
2.00000000e-03
2.00000000e-03
2.00000000e-03
2.00000000e-03
2.00000000e-03
2.00000000e-03
2.00000000e-03
2.00000000e-03
2.00000000e-03
2.00000000e-03
2.00000000e-03
2.00000000e-03
2.00000000e-03
2.00000000e-03
2.00000000e-03
2.00000000e-03
2.00000000e-03
2.00000000e-03
2.00000000e-03
2.00000000e-03
2.00000000e-03
2.00000000e-03
2.00000000e-03
2.00000000e-03
2.00000000e-03
2.00000000e-03
2.00000000e-03
2.00000000e-03
2.00000000e-03
2.00000000e-03
2.00000000e-03
2.00000000e-03
2.00000000e-03
2.00000000e-03
2.00000000e-03
2.00000000e-03
2.00000000e-03
2.00000000e-03
2.00000000e-03
2.00000000e-03
2.00000000e-03
2.00000000e-03
2.00000000e-03
2.00000000e-03
2.00000000e-03
2.00000000e-03
2.00000000e-03
2.00000000e-03
2.00000000e-03
2.00000000e-03
2.00000000e-03
2.00000000e-03
2.00000000e-03
2.00000000e-03
2.00000000e-03
2.00000000e-03
2.00000000e-03
2.00000000e-03
2.00000000e-03
2.00000000e-03
2.00000000e-03
2.00000000e-03
2.00000000e-03
2.00000000e-03
2.00000000e-03
2.00000000e-03
2.00000000e-03
2.00000000e-03
2.00000000e-03
2.00000000e-03
2.00000000e-03
2.00000000e-03
2.00000000e-03
2.00000000e-03
2.00000000e-03
2.00000000e-03
2.00000000e-03
2.00000000e-03
2.00000000e-03
2.00000000e-03
2.00000000e-03
2.00000000e-03
2.00000000e-03
2.00000000e-03
2.00000000e-03
2.00000000e-03
2.00000000e-03
2.00000000e-03
2.00000000e-03
2.00000000e-03
2.00000000e-03
2.00000000e-03
2.00000000e-03
2.00000000e-03
2.00000000e-03
2.00000000e-03
2.00000000e-03
2.00000000e-03
2.00000000e-03
2.00000000e-03
2.00000000e-03
2.00000000e-03
2.00000000e-03
2.00000000e-03
2.00000000e-03
2.00000000e-03
2.00000000e-03
2.00000000e-03
2.00000000e-03
2.00000000e-03
2.00000000e-03
2.00000000e-03
2.00000000e-03
2.00000000e-03
2.00000000e-03
2.00000000e-03
2.00000000e-03
2.00000000e-03
2.00000000e-03
2.00000000e-03
2.00000000e-03
2.00000000e-03
2.00000000e-03
2.00000000e-03
2.00000000e-03
2.00000000e-03
2.00000000e-03
2.00000000e-03
2.00000000e-03
2.00000000e-03
2.00000000e-03
2.00000000e-03
2.00000000e-03
2.00000000e-03
2.00000000e-03
2.00000000e-03
2.00000000e-03
2.00000000e-03
2.00000000e-03
2.00000000e-03
2.00000000e-03
2.00000000e-03
2.00000000e-03
2.00000000e-03
2.00000000e-03
2.00000000e-03
2.00000000e-03
2.00000000e-03
2.00000000e-03
2.00000000e-03
2.00000000e-03
2.00000000e-03
2.00000000e-03
2.00000000e-03
2.00000000e-03
2.00000000e-03
2.00000000e-03
