# vtk DataFile Version 2.0
Particle data
ASCII
DATASET POLYDATA
POINTS 469 double
3.19451301e-02	-1.65492438e-02	8.56200771e-03
2.17541583e-02	-2.40503918e-02	1.37746617e-02
9.84211859e-03	-3.00286835e-02	5.67849313e-03
2.91931074e-02	1.53571326e-02	1.79179563e-02
1.71705022e-02	-2.33642139e-02	2.48883779e-03
3.60677060e-02	-1.73578866e-02	2.52010312e-03
2.91981959e-02	-1.73645258e-02	1.11811508e-02
2.48001855e-02	-1.35945103e-03	1.80519836e-02
1.58572880e-02	-3.20748440e-02	1.81643073e-02
-8.94962203e-03	-2.30769761e-02	1.78370042e-02
3.82013323e-02	-1.16919846e-02	1.76860616e-02
2.36079408e-02	-2.11971130e-02	1.81000644e-02
4.03491836e-03	-3.96211777e-02	1.17033491e-02
1.07464320e-02	-2.54804492e-02	2.64159751e-03
3.71754496e-02	-1.45827565e-02	1.43748338e-02
1.96633143e-02	1.49705963e-04	1.43860587e-02
3.01118353e-02	1.12859305e-02	1.46508336e-02
2.10644862e-02	-3.02200564e-02	1.97148055e-03
2.98926875e-02	3.21271021e-03	1.30913137e-02
3.74434121e-02	-8.58525548e-03	1.09299312e-02
3.64185846e-02	-4.01675862e-03	2.03097759e-03
1.05064469e-02	-3.61124880e-02	1.80446872e-02
1.21263305e-02	-8.83738235e-04	7.95307755e-03
1.63647700e-02	-1.31597806e-02	2.21690258e-03
6.75551874e-03	-2.55159930e-02	2.24011041e-03
5.82090745e-03	-7.00652464e-03	1.08841842e-02
3.98686356e-02	4.50965210e-03	1.37809846e-02
1.72679702e-02	-3.27138084e-02	1.37278598e-02
3.51668378e-02	1.62663363e-02	1.54016556e-02
2.13903887e-02	-1.31116255e-02	1.36302366e-02
1.58779385e-02	-3.05985621e-02	1.03194788e-02
2.73002303e-02	-3.05677467e-02	2.30942619e-03
2.19022320e-02	-2.83129993e-02	5.68547282e-03
5.24699012e-03	-2.61909271e-02	1.76333697e-02
-7.51499601e-03	-3.36718892e-02	1.03013947e-02
1.15858515e-02	-3.15798369e-02	1.12388502e-02
3.73357448e-02	-1.56712024e-02	6.51150522e-03
3.51966744e-02	7.42431638e-03	9.88398656e-03
2.51663957e-02	-2.01946566e-02	1.07759264e-02
1.42239143e-02	-1.79243322e-02	2.68841243e-03
3.58628762e-02	4.24071450e-03	7.90607211e-03
2.58597140e-02	-2.97937829e-02	1.54423385e-02
-1.14748616e-02	-3.56293956e-02	2.10382821e-03
2.61252226e-02	-1.30809423e-02	1.42985423e-02
1.51918567e-02	-3.44261723e-04	1.47173092e-02
3.64337022e-02	-2.41510518e-03	1.12539411e-02
3.01139351e-02	-6.44616669e-03	1.41508407e-02
2.70446903e-02	-7.19063241e-03	6.31597717e-03
1.86979164e-02	-1.08070696e-02	1.44935997e-02
2.48270528e-02	-1.53090988e-02	1.81386785e-02
2.13422237e-02	-1.13714795e-02	2.19936012e-03
1.89845411e-02	-1.16448645e-02	5.22386852e-03
2.79161396e-02	1.04428428e-02	1.86135293e-02
2.42646477e-02	-2.24958543e-03	6.10211242e-03
1.15194036e-02	-3.33346238e-03	1.13880814e-02
3.71608341e-02	1.23209156e-02	1.42721855e-02
-9.50029430e-03	-2.61502209e-02	7.81792122e-03
3.27009600e-02	-3.87570086e-03	1.52290511e-02
4.61288390e-03	-1.79881257e-02	1.21607751e-02
-6.22952506e-04	-2.03148481e-02	1.74127490e-02
-5.13904269e-03	-3.49788808e-02	1.82355713e-02
6.96351349e-03	-2.22951152e-02	1.03771201e-02
1.88758894e-02	-1.51455515e-02	1.78403521e-02
3.01048735e-02	1.29050864e-02	1.09264053e-02
9.65316700e-03	-3.37279177e-02	3.99770016e-03
3.98406279e-02	-4.79605020e-03	6.09706426e-03
-1.58502010e-02	-3.67221641e-02	2.73632835e-03
2.07453231e-02	-2.51519480e-02	1.77971294e-02
4.50773007e-03	-1.39625991e-02	6.36855827e-03
1.19559218e-03	-3.86766006e-02	9.56627264e-03
3.92542440e-02	7.45659785e-03	6.10666306e-03
1.15914356e-02	-3.65915263e-02	2.01417895e-03
3.23305262e-02	-1.24817274e-02	1.78439351e-02
3.69289446e-02	6.44436242e-04	8.56458175e-03
2.99179765e-02	-2.64315614e-02	5.71357092e-03
3.95445486e-02	2.17125010e-03	1.81300736e-02
2.97833280e-02	2.45037146e-03	6.65895360e-03
2.50774293e-02	-1.66754628e-02	9.35254718e-03
-1.02182456e-03	-4.03800647e-02	1.80539340e-02
1.43047908e-02	-7.85886812e-03	1.71472676e-02
3.22213393e-02	-3.56131308e-03	5.67091297e-03
5.27112582e-03	-2.56600929e-02	6.91088345e-03
-2.43930689e-04	-2.79256213e-02	1.67768561e-03
1.87155138e-03	-2.36281927e-02	1.80443818e-02
-2.45297194e-03	-3.12976432e-02	3.13831797e-03
3.94369644e-02	-5.93104949e-03	1.87635745e-03
2.82443061e-02	-2.39556794e-02	1.48873134e-02
2.18865820e-02	8.93502709e-03	1.24747122e-02
-1.38316365e-04	-3.65851881e-02	6.30608420e-03
1.84780319e-02	-2.42034857e-03	7.68968440e-03
3.66811527e-02	-8.42852084e-04	4.96323982e-03
2.78754895e-02	-1.39715332e-02	2.32252882e-03
1.19309999e-02	-3.59315593e-02	6.17565274e-03
4.00250937e-02	6.02033316e-03	9.43087294e-03
1.48347267e-02	-2.71978829e-02	7.58915005e-03
1.66261962e-02	-3.63464756e-02	8.60816383e-03
2.48659930e-02	1.01936751e-02	7.01658235e-03
8.06255589e-03	-1.20456383e-02	1.39255830e-02
1.21638927e-02	-2.21110673e-02	1.78904915e-02
1.30989668e-02	-2.13738022e-02	8.17436885e-03
1.00461903e-02	-1.06047131e-02	5.19239806e-03
1.12497726e-02	-8.09972969e-03	9.57189556e-03
2.92859600e-02	7.31103910e-03	1.36182364e-02
3.75906886e-03	-3.98934832e-02	1.69232185e-02
5.66094264e-03	-1.60166314e-02	8.77443260e-03
2.52081290e-02	-6.19476544e-03	1.90752803e-03
2.03994851e-02	1.38684360e-04	1.79856298e-03
1.84551345e-02	-8.07481152e-03	6.01958740e-03
-1.39077591e-02	-3.13814302e-02	1.96216148e-03
1.99025750e-02	-2.06992364e-02	5.05293274e-03
1.79951708e-02	1.44659467e-03	5.29916419e-03
3.67200088e-02	5.15046381e-04	1.80704103e-02
3.29434391e-02	-6.34258278e-03	1.14285043e-02
2.64832277e-02	9.51941903e-03	1.72078427e-03
1.16856689e-03	-3.20808414e-02	1.42671974e-02
4.55264593e-03	-1.44547484e-02	2.14854131e-03
3.92200085e-02	1.04014505e-02	1.00009680e-02
-1.26107194e-03	-2.18859425e-02	6.92912762e-03
1.65637340e-02	-2.71050393e-02	1.07387009e-02
2.72704211e-02	-2.94672091e-02	6.36144599e-03
3.05142681e-02	-1.05802684e-02	1.91403906e-03
1.46133677e-02	-1.81740710e-02	1.54772752e-02
3.89361289e-02	-8.23720212e-03	1.73802531e-02
-3.01513981e-03	-3.83137630e-02	6.32537019e-03
7.99998251e-03	-3.85789167e-02	1.81700308e-02
3.68851937e-02	-6.89446151e-03	4.43506249e-03
3.49442278e-02	-1.94309667e-02	5.40264730e-03
2.42775323e-02	-2.18947568e-02	7.25089148e-03
3.24554555e-02	1.06714412e-02	9.55435731e-03
2.78494004e-02	5.09382775e-03	1.95424388e-03
3.44265630e-02	7.77381825e-03	5.76065807e-03
1.06853182e-02	-3.79623337e-02	4.24815253e-03
3.30048777e-02	-1.27274313e-03	1.83014753e-02
2.17628570e-02	-2.98531807e-02	1.25323730e-02
1.76772091e-02	-1.55682378e-02	9.66897469e-03
-6.69409461e-03	-3.83903925e-02	1.30263567e-02
1.62217220e-02	-3.03395012e-02	3.75819195e-03
3.31596388e-02	-1.76232603e-02	2.20376782e-03
1.37655273e-02	-1.15945532e-02	1.40514341e-02
3.54314432e-02	7.86161294e-03	1.76278626e-02
-3.92160580e-03	-3.31121633e-02	1.59631573e-02
3.40066528e-02	-8.46451840e-03	2.06968863e-03
3.53810155e-02	-7.24495669e-03	1.43989609e-02
3.79264490e-02	1.07724715e-02	5.89804359e-03
3.12631774e-02	-1.31572842e-02	8.54339178e-03
3.86623869e-02	-1.00985584e-02	2.55675421e-03
2.17372991e-02	1.11388756e-02	9.28210399e-03
3.76887860e-02	-1.34239918e-02	2.11067183e-03
1.80876745e-02	-6.55514370e-03	8.52379871e-03
3.77009135e-03	-2.17116176e-02	1.76369846e-02
3.18595403e-02	-1.05244069e-02	1.13213119e-02
1.55494978e-02	-4.05664463e-03	1.68518582e-02
3.34549188e-02	-2.19253560e-02	1.14180242e-02
3.94025944e-02	-9.68476801e-05	1.41823987e-02
2.48537104e-02	-9.89545068e-03	1.13170812e-02
2.67653100e-02	-2.98606616e-03	1.06238619e-02
3.24269492e-02	-2.32350343e-02	5.78139402e-03
1.50733507e-02	-2.15744633e-02	5.26795837e-03
5.98934685e-05	-4.03573149e-02	1.42471497e-02
2.83585424e-02	-7.26016513e-03	2.22684149e-03
1.66496402e-02	-3.31881325e-02	6.85005850e-03
3.42574368e-02	-2.13793345e-02	2.26130947e-03
-3.33261724e-03	-3.60255527e-02	9.67108961e-03
3.14024264e-02	9.49986648e-03	1.79762134e-02
5.53200377e-03	-2.13669279e-02	1.85514702e-03
2.09748964e-02	-2.09889238e-02	1.27534448e-02
2.22727518e-02	-1.02779542e-02	7.03491971e-03
3.52033235e-02	-1.09430805e-02	4.99344456e-03
3.34069138e-02	1.98310948e-02	1.80254334e-02
1.72810905e-02	-3.54068168e-03	1.09354311e-02
3.52282192e-02	-1.91197429e-02	9.18854766e-03
-2.46460097e-03	-2.41959504e-02	9.26967642e-03
2.81048980e-02	-7.12025883e-03	1.09574171e-02
2.51996765e-02	-2.01509571e-02	1.45515639e-02
2.66311775e-02	-1.50163041e-02	5.41120027e-03
2.88145747e-02	-2.18983245e-02	1.23017311e-02
2.22720743e-02	-3.27942605e-02	1.94200614e-03
4.86154193e-03	-3.63914933e-02	1.78359811e-02
3.13340564e-02	-2.49697001e-02	1.78559768e-02
1.44624066e-02	-8.21862023e-03	5.21050220e-03
3.15141953e-02	1.47190030e-02	1.40839062e-02
1.91916279e-04	-3.19152049e-02	5.46428249e-03
2.16324955e-02	-1.70676647e-02	1.80259346e-02
2.66127271e-02	1.24582804e-02	8.59978468e-03
8.13232933e-03	-2.80326973e-02	9.22576929e-03
3.15996845e-02	-2.49818270e-02	9.57777755e-03
3.51435531e-02	-1.08229350e-02	1.33755689e-02
2.37880157e-02	-3.25912602e-02	1.34811694e-02
2.83116703e-02	-7.29227375e-03	1.80525256e-02
3.12150770e-02	-2.52305059e-02	1.83701620e-03
2.21960100e-02	8.03305088e-03	1.76296236e-02
3.70311504e-03	-2.60443918e-02	1.37835405e-02
1.37884057e-02	1.83800929e-03	1.07426702e-02
3.39322222e-02	1.79989709e-02	7.91372020e-03
1.03817292e-02	-2.27792750e-02	5.72771561e-03
2.69608462e-02	2.98910353e-03	1.81699145e-02
5.55288494e-03	-3.00636880e-02	1.08078704e-02
2.14632747e-02	-8.53438280e-03	1.22652238e-02
2.47860975e-02	-1.24769237e-02	9.50499539e-03
9.52198917e-03	-2.84199197e-03	1.76918605e-02
3.99305113e-02	1.69255368e-03	1.07438731e-02
3.49925528e-02	-5.00825986e-03	7.53174943e-03
2.41554732e-02	6.37567781e-03	8.89270479e-03
8.64575880e-03	-3.84656216e-02	1.16383072e-02
2.08236825e-02	1.08901689e-02	1.59497809e-02
3.06992410e-02	-6.37080530e-03	8.13033618e-03
2.83948159e-02	-3.24204673e-03	1.47338951e-02
3.97459984e-02	7.26257419e-03	1.71218733e-02
1.34129359e-02	-3.11193409e-02	1.51267928e-02
3.30510169e-02	3.17584823e-03	1.43095865e-02
-9.83247192e-03	-3.62826860e-02	1.46935237e-02
1.65772592e-02	3.70109571e-03	2.20756033e-03
-6.28147205e-03	-2.80764600e-02	1.30926696e-02
1.30179853e-02	-6.77628304e-03	1.30836952e-02
1.91965381e-02	-2.88582030e-02	1.50097644e-02
9.56459665e-03	-2.82948629e-02	1.85680614e-03
[...]
POINT_DATA 469
SCALARS Radius double 1
LOOKUP_TABLE default
2.00000000e-03
2.00000000e-03
2.00000000e-03
2.00000000e-03
2.00000000e-03
2.00000000e-03
2.00000000e-03
2.00000000e-03
2.00000000e-03
2.00000000e-03
2.00000000e-03
2.00000000e-03
2.00000000e-03
2.00000000e-03
2.00000000e-03
2.00000000e-03
2.00000000e-03
2.00000000e-03
2.00000000e-03
2.00000000e-03
2.00000000e-03
2.00000000e-03
2.00000000e-03
2.00000000e-03
2.00000000e-03
2.00000000e-03
2.00000000e-03
2.00000000e-03
2.00000000e-03
2.00000000e-03
2.00000000e-03
2.00000000e-03
2.00000000e-03
2.00000000e-03
2.00000000e-03
2.00000000e-03
2.00000000e-03
2.00000000e-03
2.00000000e-03
2.00000000e-03
2.00000000e-03
2.00000000e-03
2.00000000e-03
2.00000000e-03
2.00000000e-03
2.00000000e-03
2.00000000e-03
2.00000000e-03
2.00000000e-03
2.00000000e-03
2.00000000e-03
2.00000000e-03
2.00000000e-03
2.00000000e-03
2.00000000e-03
2.00000000e-03
2.00000000e-03
2.00000000e-03
2.00000000e-03
2.00000000e-03
2.00000000e-03
2.00000000e-03
2.00000000e-03
2.00000000e-03
2.00000000e-03
2.00000000e-03
2.00000000e-03
2.00000000e-03
2.00000000e-03
2.00000000e-03
2.00000000e-03
2.00000000e-03
2.00000000e-03
2.00000000e-03
2.00000000e-03
2.00000000e-03
2.00000000e-03
2.00000000e-03
2.00000000e-03
2.00000000e-03
2.00000000e-03
2.00000000e-03
2.00000000e-03
2.00000000e-03
2.00000000e-03
2.00000000e-03
2.00000000e-03
2.00000000e-03
2.00000000e-03
2.00000000e-03
2.00000000e-03
2.00000000e-03
2.00000000e-03
2.00000000e-03
2.00000000e-03
2.00000000e-03
2.00000000e-03
2.00000000e-03
2.00000000e-03
2.00000000e-03
2.00000000e-03
2.00000000e-03
2.00000000e-03
2.00000000e-03
2.00000000e-03
2.00000000e-03
2.00000000e-03
2.00000000e-03
2.00000000e-03
2.00000000e-03
2.00000000e-03
2.00000000e-03
2.00000000e-03
2.00000000e-03
2.00000000e-03
2.00000000e-03
2.00000000e-03
2.00000000e-03
2.00000000e-03
2.00000000e-03
2.00000000e-03
2.00000000e-03
2.00000000e-03
2.00000000e-03
2.00000000e-03
2.00000000e-03
2.00000000e-03
2.00000000e-03
2.00000000e-03
2.00000000e-03
2.00000000e-03
2.00000000e-03
2.00000000e-03
2.00000000e-03
2.00000000e-03
2.00000000e-03
2.00000000e-03
2.00000000e-03
2.00000000e-03
2.00000000e-03
2.00000000e-03
2.00000000e-03
2.00000000e-03
2.00000000e-03
2.00000000e-03
2.00000000e-03
2.00000000e-03
2.00000000e-03
2.00000000e-03
2.00000000e-03
2.00000000e-03
2.00000000e-03
2.00000000e-03
2.00000000e-03
2.00000000e-03
2.00000000e-03
2.00000000e-03
2.00000000e-03
2.00000000e-03
2.00000000e-03
2.00000000e-03
2.00000000e-03
2.00000000e-03
2.00000000e-03
2.00000000e-03
2.00000000e-03
2.00000000e-03
2.00000000e-03
2.00000000e-03
2.00000000e-03
2.00000000e-03
2.00000000e-03
2.00000000e-03
2.00000000e-03
2.00000000e-03
2.00000000e-03
2.00000000e-03
2.00000000e-03
2.00000000e-03
2.00000000e-03
2.00000000e-03
2.00000000e-03
2.00000000e-03
2.00000000e-03
2.00000000e-03
2.00000000e-03
2.00000000e-03
2.00000000e-03
2.00000000e-03
2.00000000e-03
2.00000000e-03
2.00000000e-03
2.00000000e-03
2.00000000e-03
2.00000000e-03
2.00000000e-03
2.00000000e-03
2.00000000e-03
2.00000000e-03
2.00000000e-03
2.00000000e-03
2.00000000e-03
2.00000000e-03
2.00000000e-03
2.00000000e-03
2.00000000e-03
2.00000000e-03
2.00000000e-03
2.00000000e-03
2.00000000e-03
2.00000000e-03
2.00000000e-03
2.00000000e-03
2.00000000e-03
2.00000000e-03
2.00000000e-03
2.00000000e-03
2.00000000e-03
2.00000000e-03
2.00000000e-03
2.00000000e-03
2.00000000e-03
2.00000000e-03
2.00000000e-03
2.00000000e-03
2.00000000e-03
2.00000000e-03
2.00000000e-03
2.00000000e-03
2.00000000e-03
2.00000000e-03
2.00000000e-03
2.00000000e-03
2.00000000e-03
2.00000000e-03
2.00000000e-03
2.00000000e-03
2.00000000e-03
2.00000000e-03
2.00000000e-03
2.00000000e-03
2.00000000e-03
2.00000000e-03
2.00000000e-03
2.00000000e-03
2.00000000e-03
2.00000000e-03
2.00000000e-03
2.00000000e-03
2.00000000e-03
2.00000000e-03
2.00000000e-03
2.00000000e-03
2.00000000e-03
2.00000000e-03
2.00000000e-03
2.00000000e-03
2.00000000e-03
2.00000000e-03
2.00000000e-03
2.00000000e-03
2.00000000e-03
2.00000000e-03
2.00000000e-03
2.00000000e-03
2.00000000e-03
2.00000000e-03
2.00000000e-03
2.00000000e-03
2.00000000e-03
2.00000000e-03
2.00000000e-03
2.00000000e-03
2.00000000e-03
2.00000000e-03
2.00000000e-03
2.00000000e-03
2.00000000e-03
2.00000000e-03
2.00000000e-03
2.00000000e-03
2.00000000e-03
2.00000000e-03
2.00000000e-03
2.00000000e-03
2.00000000e-03
2.00000000e-03
2.00000000e-03
2.00000000e-03
2.00000000e-03
2.00000000e-03
2.00000000e-03
2.00000000e-03
2.00000000e-03
2.00000000e-03
2.00000000e-03
2.00000000e-03
2.00000000e-03
2.00000000e-03
2.00000000e-03
2.00000000e-03
2.00000000e-03
2.00000000e-03
2.00000000e-03
2.00000000e-03
2.00000000e-03
2.00000000e-03
2.00000000e-03
2.00000000e-03
2.00000000e-03
2.00000000e-03
2.00000000e-03
2.00000000e-03
2.00000000e-03
2.00000000e-03
2.00000000e-03
2.00000000e-03
2.00000000e-03
2.00000000e-03
2.00000000e-03
2.00000000e-03
2.00000000e-03
2.00000000e-03
2.00000000e-03
2.00000000e-03
2.00000000e-03
2.00000000e-03
2.00000000e-03
2.00000000e-03
2.00000000e-03
2.00000000e-03
2.00000000e-03
2.00000000e-03
2.00000000e-03
2.00000000e-03
2.00000000e-03
2.00000000e-03
2.00000000e-03
2.00000000e-03
2.00000000e-03
2.00000000e-03
2.00000000e-03
2.00000000e-03
2.00000000e-03
2.00000000e-03
2.00000000e-03
2.00000000e-03
2.00000000e-03
2.00000000e-03
2.00000000e-03
2.00000000e-03
2.00000000e-03
2.00000000e-03
2.00000000e-03
2.00000000e-03
2.00000000e-03
2.00000000e-03
2.00000000e-03
2.00000000e-03
2.00000000e-03
2.00000000e-03
2.00000000e-03
2.00000000e-03
2.00000000e-03
2.00000000e-03
2.00000000e-03
2.00000000e-03
2.00000000e-03
2.00000000e-03
2.00000000e-03
2.00000000e-03
2.00000000e-03
2.00000000e-03
2.00000000e-03
2.00000000e-03
2.00000000e-03
2.00000000e-03
2.00000000e-03
2.00000000e-03
2.00000000e-03
2.00000000e-03
2.00000000e-03
2.00000000e-03
2.00000000e-03
2.00000000e-03
2.00000000e-03
2.00000000e-03
2.00000000e-03
2.00000000e-03
2.00000000e-03
2.00000000e-03
2.00000000e-03
2.00000000e-03
2.00000000e-03
2.00000000e-03
2.00000000e-03
2.00000000e-03
2.00000000e-03
2.00000000e-03
2.00000000e-03
2.00000000e-03
2.00000000e-03
2.00000000e-03
2.00000000e-03
2.00000000e-03
2.00000000e-03
2.00000000e-03
2.00000000e-03
2.00000000e-03
2.00000000e-03
2.00000000e-03
2.00000000e-03
2.00000000e-03
2.00000000e-03
2.00000000e-03
2.00000000e-03
2.00000000e-03
2.00000000e-03
2.00000000e-03
2.00000000e-03
2.00000000e-03
2.00000000e-03
2.00000000e-03
2.00000000e-03
2.00000000e-03
2.00000000e-03
2.00000000e-03
2.00000000e-03
2.00000000e-03
2.00000000e-03
2.00000000e-03
2.00000000e-03
2.00000000e-03
2.00000000e-03
2.00000000e-03
2.00000000e-03
2.00000000e-03
2.00000000e-03
2.00000000e-03
2.00000000e-03
2.00000000e-03
2.00000000e-03
2.00000000e-03
2.00000000e-03
2.00000000e-03
2.00000000e-03
2.00000000e-03
2.00000000e-03
2.00000000e-03
2.00000000e-03
2.00000000e-03
2.00000000e-03
2.00000000e-03
2.00000000e-03
2.00000000e-03
2.00000000e-03
2.00000000e-03
2.00000000e-03
2.00000000e-03
2.00000000e-03
2.00000000e-03
2.00000000e-03
2.00000000e-03
2.00000000e-03
2.00000000e-03
2.00000000e-03
2.00000000e-03
2.00000000e-03
2.00000000e-03
