# vtk DataFile Version 2.0
Particle data
ASCII
DATASET POLYDATA
POINTS 469 double
2.13747774e-02	-2.93903561e-02	8.50022286e-03
1.04218701e-02	-3.04984295e-02	1.32249021e-02
4.05978472e-03	-2.42029984e-02	2.78220531e-03
3.95602190e-02	1.00650517e-02	1.80410030e-02
6.80198533e-03	-2.69446892e-02	2.37836467e-03
2.51976153e-02	-3.23549585e-02	2.60583457e-03
1.88383536e-02	-2.83587644e-02	1.14641505e-02
2.68025409e-02	-6.81217633e-03	1.74812704e-02
2.34533247e-03	-3.38387740e-02	1.79251256e-02
2.52920548e-02	1.42783993e-02	1.32172951e-02
3.02889574e-02	-2.53919672e-02	1.79111450e-02
1.21514544e-02	-2.97604648e-02	1.80398010e-02
-1.21814071e-02	-3.85512869e-02	1.08374958e-02
8.25910905e-03	-1.67822890e-02	2.04212119e-03
2.73868818e-02	-2.90689201e-02	1.46493650e-02
3.13720891e-02	6.62743107e-03	1.20253771e-02
3.67863971e-02	3.47243449e-03	1.42316699e-02
7.75502161e-03	-3.52686539e-02	2.23274488e-03
3.07124566e-02	-6.68395427e-03	1.34793713e-02
3.12113911e-02	-2.18337735e-02	1.08055071e-02
3.23039225e-02	-1.72422787e-02	2.07140692e-03
-3.93256240e-03	-3.47240108e-02	1.80469679e-02
3.52220897e-02	1.22996174e-02	1.20056220e-02
1.93706910e-02	-9.41041418e-03	2.33607865e-03
1.20923822e-02	-7.58165486e-03	2.15352609e-03
3.32711408e-02	1.58532814e-02	1.47974032e-02
3.77556688e-02	-1.34288659e-02	1.39747450e-02
2.77060693e-03	-3.72874851e-02	1.34535909e-02
4.01917445e-02	2.04243249e-03	1.58091479e-02
1.73321167e-02	-1.74110798e-02	1.38608117e-02
3.83677086e-03	-3.34160228e-02	1.16764881e-02
1.31006000e-02	-3.83593192e-02	2.13279466e-03
8.59803997e-03	-3.49454336e-02	5.47210031e-03
1.29549281e-02	-9.62104405e-03	1.77926788e-02
1.76874333e-02	-2.15331835e-03	8.86526285e-03
2.54805332e-03	-2.73489367e-02	1.08158893e-02
2.64363584e-02	-3.08748078e-02	6.82883883e-03
3.53809816e-02	-7.95429987e-03	9.35341897e-03
1.41900307e-02	-2.94766614e-02	1.13137102e-02
1.45894738e-02	-1.01687090e-02	2.80501149e-03
3.44009151e-02	-1.06784564e-02	8.09498367e-03
1.02333144e-02	-3.88917637e-02	1.56354147e-02
7.24592594e-03	-6.31181644e-03	2.22255133e-03
1.80736294e-02	-2.17160478e-02	1.44805285e-02
3.37151264e-02	9.19640625e-03	1.52673563e-02
3.22764849e-02	-1.73152496e-02	1.12950174e-02
2.51138024e-02	-1.83670026e-02	1.41106201e-02
2.40528683e-02	-1.59177872e-02	6.10156133e-03
2.19931099e-02	-9.46048713e-03	1.14593744e-02
1.82016143e-02	-2.38723282e-02	1.81552824e-02
1.69548461e-02	-1.76746664e-02	1.69182857e-03
1.83277540e-02	-1.28487988e-02	3.95997435e-03
3.60275162e-02	7.67679767e-03	1.74874476e-02
2.65056121e-02	-6.66439650e-03	7.77972365e-03
3.47063792e-02	1.67384548e-02	4.02445685e-03
3.96401341e-02	-3.46774120e-03	1.42378736e-02
2.94634569e-02	1.40200408e-02	1.06963565e-02
2.87239204e-02	-1.70290781e-02	1.52943700e-02
2.94261852e-02	1.60713938e-02	1.43220759e-02
2.27197421e-02	1.02069591e-02	1.68225100e-02
5.91853999e-03	-6.05981182e-03	1.80289243e-02
2.04791879e-02	-5.29129056e-03	1.11186915e-02
1.83730906e-02	-1.87067204e-02	1.83353634e-02
3.71660641e-02	1.11897359e-03	1.12066764e-02
-2.40046157e-03	-3.25136250e-02	5.66178902e-03
3.43450702e-02	-2.03187677e-02	6.60649563e-03
9.70336157e-03	-6.27353423e-04	8.05864962e-03
9.07423173e-03	-3.00784224e-02	1.77938281e-02
3.30905211e-02	1.75969874e-02	1.19724260e-02
1.06023048e-03	-1.86146320e-02	9.79315465e-03
3.81213216e-02	-1.01665298e-02	6.45273944e-03
-3.17353661e-03	-3.62254172e-02	1.98089874e-03
2.48747241e-02	-2.47640748e-02	1.79733306e-02
3.37940920e-02	-1.54027007e-02	8.74348584e-03
1.57432134e-02	-3.60476194e-02	5.72428285e-03
3.68165584e-02	-1.51898200e-02	1.83453383e-02
3.20806920e-02	-6.58686258e-03	5.97935297e-03
1.54079221e-02	-2.70177796e-02	9.66379159e-03
-1.10962915e-02	-3.26486779e-02	1.58133773e-02
2.37574853e-02	-4.34707809e-03	1.80825177e-02
2.86682036e-02	-1.60724422e-02	5.44772382e-03
1.49593171e-02	-9.21282031e-03	8.03649353e-03
1.81993988e-02	6.63937114e-03	1.94167127e-03
1.36156115e-02	-1.15997801e-03	1.79306114e-02
1.66993193e-02	-5.93310143e-04	2.70486091e-03
3.47823895e-02	-2.04200678e-02	1.89930997e-03
1.49046955e-02	-3.30425914e-02	1.47286949e-02
3.62496583e-02	7.07056214e-03	1.29685773e-02
9.91605237e-03	-7.61354647e-03	6.32157925e-03
2.98504041e-02	2.92978436e-04	6.49729766e-03
3.28817237e-02	-1.57549974e-02	4.94182537e-03
1.84269209e-02	-2.53805204e-02	2.25363812e-03
-2.69416434e-03	-3.50252476e-02	6.35146582e-03
3.75366955e-02	-1.21672817e-02	9.55363583e-03
5.50889001e-03	-2.25966706e-02	1.02128107e-02
3.91231554e-04	-3.99031771e-02	8.53672706e-03
3.65721916e-02	5.80883923e-03	8.91765167e-03
2.47078601e-02	9.97126375e-03	1.85145637e-02
1.66948789e-02	-1.11694402e-02	1.76159053e-02
1.18382372e-02	-1.87842303e-02	1.11470149e-02
2.81753605e-02	4.13420995e-03	2.21689429e-03
2.89753407e-02	3.95454278e-04	1.05233545e-02
3.60131502e-02	3.34973450e-04	1.38753381e-02
-1.18780207e-02	-3.64889023e-02	1.59687640e-02
3.17484497e-02	1.26384434e-02	1.01978719e-02
2.34754686e-02	-1.23661684e-02	1.67227590e-03
3.06056175e-02	6.55851831e-03	2.05229518e-03
2.15259976e-02	-7.39418902e-03	3.38622661e-03
1.36121005e-02	6.01402690e-03	1.88443668e-03
1.01403307e-02	-2.69987703e-02	5.01341810e-03
3.07406808e-02	2.68202815e-03	4.53568183e-03
3.44767705e-02	-1.48337272e-02	1.79737564e-02
2.84723232e-02	-1.89947750e-02	1.18719878e-02
3.56258732e-02	4.63528339e-03	2.06278836e-03
1.04842337e-02	-5.89846306e-03	1.58544609e-02
2.75580109e-02	1.30628599e-02	2.01617140e-03
3.86198950e-02	-6.21718327e-03	1.04078093e-02
2.60078497e-02	3.26562728e-03	9.98665120e-03
6.01695715e-03	-2.90432290e-02	1.11309844e-02
1.13420619e-02	-3.95392388e-02	5.95434639e-03
2.35903153e-02	-2.22456838e-02	1.94565695e-03
1.61345024e-02	-1.56096888e-02	1.72419771e-02
3.27964321e-02	-2.15952594e-02	1.77268010e-02
-2.73760066e-03	-2.37084370e-02	1.08725409e-02
-7.98485245e-03	-3.82329528e-02	1.81514916e-02
3.15704628e-02	-2.05659193e-02	4.57086090e-03
2.34460501e-02	-3.30014582e-02	5.39268907e-03
1.34126397e-02	-2.86479655e-02	7.91611176e-03
3.64505493e-02	-4.25457433e-03	9.16206248e-03
3.25534439e-02	-4.09032754e-03	2.05024255e-03
3.53542453e-02	-8.01748590e-03	5.47684948e-03
-6.21654773e-03	-3.98262523e-02	4.54604045e-03
3.01465292e-02	-1.42153593e-02	1.82586758e-02
8.87728450e-03	-3.41923219e-02	1.25840538e-02
1.60334183e-02	-1.39375861e-02	1.11832732e-02
1.55595153e-02	5.02468174e-03	6.11976559e-03
3.08972422e-03	-3.26778052e-02	3.85579758e-03
2.24655158e-02	-3.09687599e-02	2.41587294e-03
2.66323895e-02	5.10055816e-03	1.38966754e-02
3.49078413e-02	-8.25050802e-03	1.75656798e-02
1.27064084e-02	2.93970420e-03	1.57446662e-02
2.81135524e-02	-2.11295195e-02	2.32056690e-03
2.93332018e-02	-2.11968464e-02	1.41594332e-02
3.92411106e-02	-5.86763176e-03	5.85582066e-03
2.25212447e-02	-2.60062951e-02	8.62842039e-03
3.15197128e-02	-2.38591275e-02	2.37806994e-03
3.68089291e-02	1.30846614e-02	1.01264556e-02
2.82464781e-02	-2.81468973e-02	2.07128592e-03
2.32157811e-02	-7.58846637e-03	6.86761520e-03
1.81721035e-02	1.10695240e-03	1.80877491e-02
2.51905310e-02	-2.17682142e-02	1.08822116e-02
2.70993494e-02	6.82997448e-03	1.83373482e-02
2.05462455e-02	-3.48458890e-02	1.14724053e-02
3.62979644e-02	-1.67286856e-02	1.50262840e-02
1.94169010e-02	-1.90984799e-02	1.16847967e-02
2.45445452e-02	-1.32434871e-02	1.03240052e-02
1.99851710e-02	-3.51409821e-02	5.89490519e-03
8.58551357e-03	-2.32481573e-02	5.93284597e-03
-1.58164881e-02	-3.69533957e-02	1.34224165e-02
2.34122351e-02	-1.87087710e-02	2.17701507e-03
2.42824038e-03	-3.60804788e-02	6.99387474e-03
2.18038120e-02	-3.38714771e-02	2.35534201e-03
1.80849764e-02	1.10811586e-02	1.28335334e-02
3.43778537e-02	-6.87267969e-04	1.80865780e-02
2.11376138e-02	3.44484519e-03	2.49105542e-03
1.13886832e-02	-2.75187875e-02	1.32513599e-02
1.82041737e-02	-1.85034363e-02	7.28392072e-03
2.79526213e-02	-2.31646879e-02	5.13502185e-03
3.98475880e-02	4.83423499e-03	1.80341398e-02
3.07317977e-02	4.61763408e-03	8.15425884e-03
2.37692244e-02	-3.29150739e-02	9.42391485e-03
2.92552236e-02	1.66677689e-02	5.17948459e-03
2.32154338e-02	-1.81981385e-02	1.08257721e-02
1.33383372e-02	-2.99641388e-02	1.46003919e-02
1.74021925e-02	-2.49190797e-02	6.21695824e-03
1.76337301e-02	-3.26198883e-02	1.22604195e-02
5.88751866e-03	-4.00821748e-02	1.80588355e-03
-8.54355376e-03	-3.36546022e-02	1.68007507e-02
1.81249715e-02	-3.55887215e-02	1.80141091e-02
2.62110444e-02	-4.04414476e-03	4.84903223e-03
3.94944521e-02	7.95970731e-03	1.42936542e-02
1.49741927e-02	-8.97529721e-03	5.81775095e-03
1.40459118e-02	-2.35705364e-02	1.85065766e-02
3.86152336e-02	1.01617816e-02	6.89294508e-03
1.27187103e-02	-1.55715651e-02	1.43791340e-02
1.90016170e-02	-3.60041509e-02	9.31352792e-03
2.81535474e-02	-2.26797999e-02	1.38170074e-02
7.72385698e-03	-3.99556292e-02	1.30950844e-02
2.31265324e-02	-1.68915386e-02	1.77423017e-02
1.68383281e-02	-3.61235479e-02	2.06086442e-03
3.35443348e-02	1.18576711e-02	1.76998913e-02
2.36595746e-02	9.32098525e-03	1.31885656e-02
3.60354306e-02	1.57115693e-02	1.44867262e-02
4.05756657e-02	2.68491185e-03	7.53790131e-03
1.87728105e-02	-9.24695331e-03	6.54392766e-03
2.89695420e-02	-4.74320189e-03	1.79984165e-02
2.17382421e-02	5.88044760e-03	1.15626200e-02
2.07084120e-02	-1.46793728e-02	1.00584330e-02
1.83404124e-02	-2.00761634e-02	1.00257374e-02
3.13046458e-02	2.08808485e-02	1.82767884e-02
3.68865087e-02	-1.52771903e-02	1.12518989e-02
3.04105258e-02	-1.88529184e-02	7.68052789e-03
3.31539298e-02	-7.27570903e-05	1.03390445e-02
-7.82320133e-03	-3.79868632e-02	1.16752794e-02
3.80326255e-02	1.17891450e-02	1.47324511e-02
2.66363054e-02	-1.79749987e-02	8.00441540e-03
2.51511962e-02	-1.39913285e-02	1.40763497e-02
3.81346461e-02	-1.10797045e-02	1.71247675e-02
1.90482024e-03	-3.17594420e-02	1.48951184e-02
3.13242290e-02	-1.07250998e-02	1.47366822e-02
9.43229420e-03	-1.69178688e-03	1.43499819e-02
3.15210750e-02	1.01672419e-02	2.16842616e-03
2.56059548e-02	1.38945443e-02	7.37867798e-03
2.84023138e-02	1.83486287e-03	1.43000499e-02
6.61983343e-03	-3.25384694e-02	1.51712238e-02
5.88251103e-03	-1.54196117e-02	5.13768567e-03
[...]
POINT_DATA 469
SCALARS Radius double 1
LOOKUP_TABLE default
2.00000000e-03
2.00000000e-03
2.00000000e-03
2.00000000e-03
2.00000000e-03
2.00000000e-03
2.00000000e-03
2.00000000e-03
2.00000000e-03
2.00000000e-03
2.00000000e-03
2.00000000e-03
2.00000000e-03
2.00000000e-03
2.00000000e-03
2.00000000e-03
2.00000000e-03
2.00000000e-03
2.00000000e-03
2.00000000e-03
2.00000000e-03
2.00000000e-03
2.00000000e-03
2.00000000e-03
2.00000000e-03
2.00000000e-03
2.00000000e-03
2.00000000e-03
2.00000000e-03
2.00000000e-03
2.00000000e-03
2.00000000e-03
2.00000000e-03
2.00000000e-03
2.00000000e-03
2.00000000e-03
2.00000000e-03
2.00000000e-03
2.00000000e-03
2.00000000e-03
2.00000000e-03
2.00000000e-03
2.00000000e-03
2.00000000e-03
2.00000000e-03
2.00000000e-03
2.00000000e-03
2.00000000e-03
2.00000000e-03
2.00000000e-03
2.00000000e-03
2.00000000e-03
2.00000000e-03
2.00000000e-03
2.00000000e-03
2.00000000e-03
2.00000000e-03
2.00000000e-03
2.00000000e-03
2.00000000e-03
2.00000000e-03
2.00000000e-03
2.00000000e-03
2.00000000e-03
2.00000000e-03
2.00000000e-03
2.00000000e-03
2.00000000e-03
2.00000000e-03
2.00000000e-03
2.00000000e-03
2.00000000e-03
2.00000000e-03
2.00000000e-03
2.00000000e-03
2.00000000e-03
2.00000000e-03
2.00000000e-03
2.00000000e-03
2.00000000e-03
2.00000000e-03
2.00000000e-03
2.00000000e-03
2.00000000e-03
2.00000000e-03
2.00000000e-03
2.00000000e-03
2.00000000e-03
2.00000000e-03
2.00000000e-03
2.00000000e-03
2.00000000e-03
2.00000000e-03
2.00000000e-03
2.00000000e-03
2.00000000e-03
2.00000000e-03
2.00000000e-03
2.00000000e-03
2.00000000e-03
2.00000000e-03
2.00000000e-03
2.00000000e-03
2.00000000e-03
2.00000000e-03
2.00000000e-03
2.00000000e-03
2.00000000e-03
2.00000000e-03
2.00000000e-03
2.00000000e-03
2.00000000e-03
2.00000000e-03
2.00000000e-03
2.00000000e-03
2.00000000e-03
2.00000000e-03
2.00000000e-03
2.00000000e-03
2.00000000e-03
2.00000000e-03
2.00000000e-03
2.00000000e-03
2.00000000e-03
2.00000000e-03
2.00000000e-03
2.00000000e-03
2.00000000e-03
2.00000000e-03
2.00000000e-03
2.00000000e-03
2.00000000e-03
2.00000000e-03
2.00000000e-03
2.00000000e-03
2.00000000e-03
2.00000000e-03
2.00000000e-03
2.00000000e-03
2.00000000e-03
2.00000000e-03
2.00000000e-03
2.00000000e-03
2.00000000e-03
2.00000000e-03
2.00000000e-03
2.00000000e-03
2.00000000e-03
2.00000000e-03
2.00000000e-03
2.00000000e-03
2.00000000e-03
2.00000000e-03
2.00000000e-03
2.00000000e-03
2.00000000e-03
2.00000000e-03
2.00000000e-03
2.00000000e-03
2.00000000e-03
2.00000000e-03
2.00000000e-03
2.00000000e-03
2.00000000e-03
2.00000000e-03
2.00000000e-03
2.00000000e-03
2.00000000e-03
2.00000000e-03
2.00000000e-03
2.00000000e-03
2.00000000e-03
2.00000000e-03
2.00000000e-03
2.00000000e-03
2.00000000e-03
2.00000000e-03
2.00000000e-03
2.00000000e-03
2.00000000e-03
2.00000000e-03
2.00000000e-03
2.00000000e-03
2.00000000e-03
2.00000000e-03
2.00000000e-03
2.00000000e-03
2.00000000e-03
2.00000000e-03
2.00000000e-03
2.00000000e-03
2.00000000e-03
2.00000000e-03
2.00000000e-03
2.00000000e-03
2.00000000e-03
2.00000000e-03
2.00000000e-03
2.00000000e-03
2.00000000e-03
2.00000000e-03
2.00000000e-03
2.00000000e-03
2.00000000e-03
2.00000000e-03
2.00000000e-03
2.00000000e-03
2.00000000e-03
2.00000000e-03
2.00000000e-03
2.00000000e-03
2.00000000e-03
2.00000000e-03
2.00000000e-03
2.00000000e-03
2.00000000e-03
2.00000000e-03
2.00000000e-03
2.00000000e-03
2.00000000e-03
2.00000000e-03
2.00000000e-03
2.00000000e-03
2.00000000e-03
2.00000000e-03
2.00000000e-03
2.00000000e-03
2.00000000e-03
2.00000000e-03
2.00000000e-03
2.00000000e-03
2.00000000e-03
2.00000000e-03
2.00000000e-03
2.00000000e-03
2.00000000e-03
2.00000000e-03
2.00000000e-03
2.00000000e-03
2.00000000e-03
2.00000000e-03
2.00000000e-03
2.00000000e-03
2.00000000e-03
2.00000000e-03
2.00000000e-03
2.00000000e-03
2.00000000e-03
2.00000000e-03
2.00000000e-03
2.00000000e-03
2.00000000e-03
2.00000000e-03
2.00000000e-03
2.00000000e-03
2.00000000e-03
2.00000000e-03
2.00000000e-03
2.00000000e-03
2.00000000e-03
2.00000000e-03
2.00000000e-03
2.00000000e-03
2.00000000e-03
2.00000000e-03
2.00000000e-03
2.00000000e-03
2.00000000e-03
2.00000000e-03
2.00000000e-03
2.00000000e-03
2.00000000e-03
2.00000000e-03
2.00000000e-03
2.00000000e-03
2.00000000e-03
2.00000000e-03
2.00000000e-03
2.00000000e-03
2.00000000e-03
2.00000000e-03
2.00000000e-03
2.00000000e-03
2.00000000e-03
2.00000000e-03
2.00000000e-03
2.00000000e-03
2.00000000e-03
2.00000000e-03
2.00000000e-03
2.00000000e-03
2.00000000e-03
2.00000000e-03
2.00000000e-03
2.00000000e-03
2.00000000e-03
2.00000000e-03
2.00000000e-03
2.00000000e-03
2.00000000e-03
2.00000000e-03
2.00000000e-03
2.00000000e-03
2.00000000e-03
2.00000000e-03
2.00000000e-03
2.00000000e-03
2.00000000e-03
2.00000000e-03
2.00000000e-03
2.00000000e-03
2.00000000e-03
2.00000000e-03
2.00000000e-03
2.00000000e-03
2.00000000e-03
2.00000000e-03
2.00000000e-03
2.00000000e-03
2.00000000e-03
2.00000000e-03
2.00000000e-03
2.00000000e-03
2.00000000e-03
2.00000000e-03
2.00000000e-03
2.00000000e-03
2.00000000e-03
2.00000000e-03
2.00000000e-03
2.00000000e-03
2.00000000e-03
2.00000000e-03
2.00000000e-03
2.00000000e-03
2.00000000e-03
2.00000000e-03
2.00000000e-03
2.00000000e-03
2.00000000e-03
2.00000000e-03
2.00000000e-03
2.00000000e-03
2.00000000e-03
2.00000000e-03
2.00000000e-03
2.00000000e-03
2.00000000e-03
2.00000000e-03
2.00000000e-03
2.00000000e-03
2.00000000e-03
2.00000000e-03
2.00000000e-03
2.00000000e-03
2.00000000e-03
2.00000000e-03
2.00000000e-03
2.00000000e-03
2.00000000e-03
2.00000000e-03
2.00000000e-03
2.00000000e-03
2.00000000e-03
2.00000000e-03
2.00000000e-03
2.00000000e-03
2.00000000e-03
2.00000000e-03
2.00000000e-03
2.00000000e-03
2.00000000e-03
2.00000000e-03
2.00000000e-03
2.00000000e-03
2.00000000e-03
2.00000000e-03
2.00000000e-03
2.00000000e-03
2.00000000e-03
2.00000000e-03
2.00000000e-03
2.00000000e-03
2.00000000e-03
2.00000000e-03
2.00000000e-03
2.00000000e-03
2.00000000e-03
2.00000000e-03
2.00000000e-03
2.00000000e-03
2.00000000e-03
2.00000000e-03
2.00000000e-03
2.00000000e-03
2.00000000e-03
2.00000000e-03
2.00000000e-03
2.00000000e-03
2.00000000e-03
2.00000000e-03
2.00000000e-03
2.00000000e-03
2.00000000e-03
2.00000000e-03
2.00000000e-03
2.00000000e-03
2.00000000e-03
2.00000000e-03
2.00000000e-03
2.00000000e-03
2.00000000e-03
2.00000000e-03
2.00000000e-03
2.00000000e-03
2.00000000e-03
2.00000000e-03
2.00000000e-03
2.00000000e-03
2.00000000e-03
2.00000000e-03
2.00000000e-03
2.00000000e-03
2.00000000e-03
2.00000000e-03
2.00000000e-03
2.00000000e-03
2.00000000e-03
2.00000000e-03
2.00000000e-03
2.00000000e-03
2.00000000e-03
2.00000000e-03
2.00000000e-03
2.00000000e-03
2.00000000e-03
2.00000000e-03
2.00000000e-03
2.00000000e-03
2.00000000e-03
2.00000000e-03
2.00000000e-03
2.00000000e-03
2.00000000e-03
2.00000000e-03
2.00000000e-03
2.00000000e-03
2.00000000e-03
2.00000000e-03
2.00000000e-03
2.00000000e-03
2.00000000e-03
2.00000000e-03
2.00000000e-03
2.00000000e-03
2.00000000e-03
2.00000000e-03
2.00000000e-03
2.00000000e-03
2.00000000e-03
2.00000000e-03
2.00000000e-03
2.00000000e-03
2.00000000e-03
2.00000000e-03
2.00000000e-03
2.00000000e-03
2.00000000e-03
2.00000000e-03
