# vtk DataFile Version 2.0
Particle data
ASCII
DATASET POLYDATA
POINTS 469 double
-5.41787515e-03	-3.30984118e-02	9.08655653e-03
2.34270036e-02	1.76821417e-03	1.57371649e-02
3.21495220e-02	6.16655157e-03	2.06115875e-03
3.30721262e-02	-2.28983702e-02	1.77813920e-02
3.09554397e-02	5.56154285e-03	5.89860905e-03
-8.53847724e-03	-4.01643916e-02	2.47414569e-03
9.93446760e-04	-2.41425157e-02	1.31344607e-02
1.47244328e-02	-2.52329763e-02	1.77263282e-02
2.71539770e-02	1.89685015e-02	1.76229817e-02
3.56972589e-02	-7.91464860e-03	1.09467335e-02
-3.39206019e-03	-3.97079516e-02	1.80356513e-02
9.29507607e-03	-1.62102990e-02	1.81242122e-02
2.52991423e-02	2.02149996e-02	1.39309818e-02
3.79563728e-02	1.19813483e-02	2.21848386e-03
-5.13067355e-03	-3.96132852e-02	1.37266785e-02
2.90197800e-02	-1.78090980e-02	1.24719096e-02
2.71753425e-02	-2.47860662e-02	1.44160130e-02
2.42009479e-02	7.87831313e-03	2.03153915e-03
1.59590438e-02	-2.76632603e-02	1.38487338e-02
8.66477882e-04	-3.81348537e-02	1.10069335e-02
6.43081667e-03	-3.59536444e-02	2.07436874e-03
2.69965581e-02	6.59411279e-03	1.80184914e-02
3.32271292e-02	-1.78247022e-02	1.09195326e-02
1.35733723e-02	-1.68573010e-02	2.07248547e-03
2.87409302e-02	-3.84468438e-03	2.04733656e-03
3.66110690e-02	-1.03734272e-02	1.43047203e-02
1.44836580e-02	-3.71343675e-02	1.45546254e-02
1.85251073e-02	-1.74870027e-03	1.19481943e-02
2.68925016e-02	-2.97557832e-02	1.68700225e-02
1.56311287e-02	-1.14108450e-02	1.36688655e-02
2.61113124e-02	1.55588110e-02	1.08753107e-02
-1.76328854e-03	-2.19637521e-02	2.01893348e-03
2.32963445e-02	7.23951185e-03	9.45987205e-03
2.62004350e-02	-2.62307614e-03	1.76981647e-02
2.60137624e-02	-1.17195284e-02	9.29856158e-03
3.85539472e-02	1.01302274e-02	1.20755602e-02
-7.08850858e-03	-3.78226032e-02	4.77983246e-03
1.83519752e-02	-3.11218214e-02	9.09575564e-03
1.45716095e-02	-1.03707762e-02	1.00541786e-02
2.50164948e-02	-1.08194938e-02	2.32001348e-03
1.49316733e-02	-3.32069295e-02	8.17353921e-03
1.93011944e-02	1.89151380e-02	1.30442146e-02
3.24110001e-02	-1.30091576e-03	1.99407415e-03
1.17425017e-02	-1.42850113e-02	9.74532210e-03
3.42879723e-02	-1.29365161e-02	1.24181082e-02
6.45976882e-03	-3.50542793e-02	1.10764024e-02
7.00933336e-03	-2.68167412e-02	1.44135136e-02
5.59944716e-03	-2.70625549e-02	6.89543840e-03
1.30504479e-02	-1.95945851e-02	1.13729124e-02
7.00425813e-03	-1.11439112e-02	1.77444895e-02
2.57950749e-02	8.20516314e-03	1.22580518e-02
2.16990673e-02	1.54930475e-03	1.91129022e-03
3.24222822e-02	-1.64653833e-02	1.52168087e-02
1.56541700e-02	-2.43187210e-02	7.77712838e-03
3.67131288e-02	-1.57982735e-02	5.15133914e-03
2.45634528e-02	-3.16658568e-02	1.43388088e-02
3.40740185e-02	-1.16294215e-02	9.02474782e-03
5.67703301e-03	-3.33202508e-02	1.53527824e-02
3.91617650e-02	-8.22419287e-03	1.38793631e-02
3.64165935e-02	-5.80914363e-03	1.82063649e-02
3.94603960e-02	7.78980505e-03	1.74873114e-02
2.05745012e-02	-1.68338917e-02	1.12286059e-02
2.77620338e-03	-2.62156358e-02	1.80980177e-02
2.55481992e-02	-2.64949170e-02	1.00116192e-02
3.63669163e-02	1.46090867e-02	3.81000951e-03
4.06800734e-03	-3.97740111e-02	6.97041219e-03
3.46357362e-02	-1.43374047e-03	4.76991148e-03
2.90830968e-02	1.08037996e-02	1.53446601e-02
3.85209391e-02	-1.08166414e-02	1.08450834e-02
3.59931174e-02	5.02354625e-03	1.04886300e-02
1.63034733e-02	-3.67777471e-02	6.53405125e-03
2.44985933e-02	1.43654956e-02	2.59300220e-03
-3.63644074e-03	-3.38732885e-02	1.81992152e-02
1.09766449e-02	-3.54050216e-02	8.85919564e-03
6.23852698e-03	-1.58520130e-02	7.62762907e-03
1.27508333e-02	-3.65312344e-02	1.81282466e-02
1.68092904e-02	-2.89605869e-02	5.58737833e-03
1.83336578e-02	-4.76055228e-03	4.87651914e-03
2.86742077e-02	8.25756650e-03	2.29520572e-03
1.27041915e-02	-2.18113611e-02	1.81448691e-02
6.08370170e-03	-3.30244536e-02	5.74649097e-03
2.46837915e-02	-8.91356484e-03	6.62659163e-03
3.55319839e-02	-4.45201616e-03	2.10921573e-03
3.77081777e-02	4.70997524e-03	1.80748306e-02
2.73153330e-02	-7.78887030e-03	2.10566370e-03
4.18702348e-03	-4.02911084e-02	2.00530794e-03
-3.22723641e-03	-2.68960336e-02	9.30140830e-03
3.00448244e-02	-2.07381060e-02	1.30515106e-02
3.10517070e-02	-9.78219684e-04	5.43728207e-03
2.25288564e-02	-2.27603049e-02	6.62042674e-03
8.63010088e-03	-3.59900856e-02	5.74059903e-03
2.40819857e-02	5.17183523e-03	4.61030655e-03
2.67593038e-02	2.35436625e-03	8.94924673e-03
1.63747754e-02	-3.61609719e-02	1.06076056e-02
3.44363931e-02	6.20403640e-03	1.83042523e-02
2.06463338e-02	8.81287900e-03	2.86187318e-03
2.92049096e-02	-2.19353098e-02	8.80047742e-03
3.09740240e-02	-1.06207042e-02	1.81436477e-02
8.34352057e-03	-1.95507219e-02	1.79712053e-02
1.91374736e-02	-1.16444907e-02	1.31588891e-02
2.47209682e-02	-1.86140582e-02	1.98057613e-03
2.52151671e-02	-1.76457867e-02	1.08415650e-02
2.34426721e-02	-2.59803421e-02	1.31856891e-02
2.74265060e-02	1.35555261e-02	1.78302917e-02
3.26989614e-02	-1.52499376e-02	8.96901530e-03
8.07130061e-03	-2.21684682e-02	1.96301124e-03
2.81768328e-02	-1.81828499e-02	2.17627969e-03
1.40744133e-02	-2.11997537e-02	1.91698765e-03
3.57665101e-02	6.55580304e-05	1.95693709e-03
2.93132031e-02	-1.83003301e-03	9.43885806e-03
2.55283602e-02	-2.17747344e-02	4.27596146e-03
9.01235102e-03	-3.60743222e-02	1.80266335e-02
2.77032205e-03	-3.39105602e-02	1.26450972e-02
2.88824464e-02	-2.32532555e-02	2.25481486e-03
3.38268903e-02	5.82452340e-04	1.81183221e-02
3.52471404e-02	-7.73205769e-03	2.03661087e-03
2.13527742e-02	-3.34295540e-02	1.01169629e-02
2.78665659e-02	-1.58303031e-02	8.86704076e-03
3.12102604e-02	1.43989786e-02	1.41777990e-02
2.35053516e-02	1.94482949e-02	7.96571802e-03
4.16586289e-04	-3.06628846e-02	2.03992901e-03
5.19669208e-03	-2.28121598e-02	1.80635101e-02
2.82780953e-03	-3.97838757e-02	1.65801292e-02
3.51929019e-02	4.20848263e-03	1.51805692e-02
2.68419967e-02	2.43283988e-02	1.80901805e-02
2.65203075e-03	-3.73052918e-02	4.33636513e-03
-1.16178762e-02	-3.94524754e-02	5.37151357e-03
2.99922701e-02	1.02255135e-02	1.22963515e-02
2.28062168e-02	-2.89822226e-02	8.30601856e-03
2.02703375e-02	-2.71979579e-02	1.93985811e-03
1.79524488e-02	-3.30555601e-02	5.51112420e-03
2.85320203e-02	2.47418399e-02	6.23398757e-03
8.03599870e-03	-3.15219822e-02	1.81608505e-02
3.36913712e-02	1.90468727e-02	1.37480423e-02
1.71282204e-02	-1.48462143e-02	1.14724412e-02
3.88386814e-02	1.21129512e-03	5.64024732e-03
2.97460636e-02	1.38629320e-02	5.79280076e-03
-1.11101219e-02	-3.70756703e-02	1.80244361e-03
2.94088130e-02	-1.36017423e-02	1.43943389e-02
1.88402571e-02	-3.08446939e-02	1.72309683e-02
3.58677487e-02	-2.17423452e-03	1.55478057e-02
9.82422339e-04	-3.43806007e-02	2.32818550e-03
1.04729491e-03	-3.69178066e-02	1.49193614e-02
2.22209671e-02	-3.34185533e-02	6.17072420e-03
-3.78908558e-05	-2.98698939e-02	6.50708086e-03
1.35076618e-04	-4.04680394e-02	2.58758318e-03
3.64267128e-02	-1.65724247e-02	1.04714519e-02
-4.08094541e-03	-3.92607502e-02	2.04705384e-03
1.81551805e-02	-1.96454684e-02	8.56226971e-03
2.62502976e-02	-7.70801996e-03	1.81105725e-02
3.05829923e-03	-2.98441582e-02	1.25748330e-02
2.58277678e-02	-1.47133844e-02	1.82053211e-02
-1.38032360e-02	-3.91587578e-02	1.11719744e-02
9.35132764e-03	-3.90810653e-02	1.52268779e-02
1.85524505e-02	-7.30954482e-03	1.10068470e-02
1.23600223e-02	-2.33439572e-02	1.01979077e-02
-1.71478519e-02	-3.73282416e-02	5.16615336e-03
2.87749181e-02	3.34524670e-04	2.24898797e-03
3.43232311e-02	1.89348061e-02	2.07836233e-03
3.28655373e-03	-2.90140738e-02	2.63921962e-03
2.64492189e-02	1.93216749e-02	6.61270105e-03
-1.46259656e-02	-3.83944984e-02	1.94055388e-03
3.93254038e-02	-5.16061790e-03	1.40873824e-02
2.16470090e-02	-2.54486201e-02	1.80247940e-02
3.11635241e-02	-1.00932377e-02	2.06646220e-03
2.31118584e-02	-3.01379852e-03	1.65135196e-02
1.56699087e-02	-1.14864398e-02	5.63010906e-03
-2.01638651e-03	-3.37644554e-02	5.06192735e-03
3.01251987e-02	-2.57846074e-02	1.80972239e-02
2.59618507e-02	-1.99575826e-02	7.82505050e-03
-9.75808499e-03	-4.00487337e-02	9.14127778e-03
3.92383492e-02	-6.71185485e-03	2.55649203e-03
8.87718415e-03	-2.56605819e-02	1.13082404e-02
-4.62138022e-03	-2.82192401e-02	1.51103716e-02
1.89607858e-02	1.54653170e-03	4.85182392e-03
-1.02762661e-02	-3.25267065e-02	1.28893478e-02
1.77987156e-02	2.13839925e-03	1.02153595e-02
3.05810802e-02	1.89144644e-02	1.79254027e-02
-7.50490465e-03	-2.76622542e-02	1.79367524e-02
1.84838433e-02	-2.17964434e-02	5.24295975e-03
3.16399057e-02	-2.45853715e-02	1.44448952e-02
1.56208681e-02	-1.93302413e-02	5.58057522e-03
1.69321436e-02	-6.22100351e-03	1.75364327e-02
3.28617236e-02	-2.27114466e-02	6.65181799e-03
2.13681939e-02	-8.93830480e-03	1.59513846e-02
-1.45049306e-02	-3.32882396e-02	8.20687503e-03
-6.09574770e-05	-3.22339046e-02	1.06092709e-02
2.76791407e-02	2.14755969e-02	1.03168724e-02
3.50133742e-03	-3.10029716e-02	1.76465965e-02
9.03914037e-03	-1.66709551e-02	3.83052914e-03
3.38291362e-02	-1.36576837e-02	1.78290586e-02
3.39294760e-02	-8.50356647e-03	1.47063819e-02
3.77529339e-02	-1.42712483e-02	1.44453646e-02
2.81625521e-02	-2.86597340e-02	7.78567436e-03
1.21275319e-02	-2.27236953e-02	5.29790051e-03
2.01055456e-02	-2.21457339e-02	1.80271315e-02
3.10791114e-02	-6.87999670e-03	1.07562881e-02
1.95488863e-02	-5.29680451e-03	7.93761484e-03
1.02571606e-02	-1.91315536e-02	8.52238379e-03
3.94977921e-02	-8.58947378e-03	1.79715245e-02
1.15399319e-02	-3.88555787e-02	1.16326043e-02
4.85422196e-03	-3.63477513e-02	7.25839930e-03
2.17025098e-02	-2.42129389e-02	1.01991423e-02
3.08169970e-02	2.52397045e-02	1.76676911e-02
3.54988041e-02	-1.87144009e-02	1.43377700e-02
3.40885640e-03	-3.23261785e-02	9.07001993e-03
1.07360233e-02	-1.99190920e-02	1.45610790e-02
1.65321146e-02	-3.40280210e-02	1.74876053e-02
3.23305423e-02	1.59237123e-02	5.07444743e-03
1.34176803e-02	-3.10635174e-02	1.45673484e-02
3.68191882e-02	1.05219354e-03	1.27594276e-02
3.27102468e-02	-1.54456874e-02	2.07449670e-03
3.93761393e-02	-4.43030714e-03	6.00149272e-03
2.59103632e-02	-1.64365002e-02	1.46935120e-02
3.35819907e-02	1.87438509e-02	9.75753294e-03
3.55963049e-02	3.52413806e-03	5.07662962e-03
[...]
POINT_DATA 469
SCALARS Radius double 1
LOOKUP_TABLE default
2.00000000e-03
2.00000000e-03
2.00000000e-03
2.00000000e-03
2.00000000e-03
2.00000000e-03
2.00000000e-03
2.00000000e-03
2.00000000e-03
2.00000000e-03
2.00000000e-03
2.00000000e-03
2.00000000e-03
2.00000000e-03
2.00000000e-03
2.00000000e-03
2.00000000e-03
2.00000000e-03
2.00000000e-03
2.00000000e-03
2.00000000e-03
2.00000000e-03
2.00000000e-03
2.00000000e-03
2.00000000e-03
2.00000000e-03
2.00000000e-03
2.00000000e-03
2.00000000e-03
2.00000000e-03
2.00000000e-03
2.00000000e-03
2.00000000e-03
2.00000000e-03
2.00000000e-03
2.00000000e-03
2.00000000e-03
2.00000000e-03
2.00000000e-03
2.00000000e-03
2.00000000e-03
2.00000000e-03
2.00000000e-03
2.00000000e-03
2.00000000e-03
2.00000000e-03
2.00000000e-03
2.00000000e-03
2.00000000e-03
2.00000000e-03
2.00000000e-03
2.00000000e-03
2.00000000e-03
2.00000000e-03
2.00000000e-03
2.00000000e-03
2.00000000e-03
2.00000000e-03
2.00000000e-03
2.00000000e-03
2.00000000e-03
2.00000000e-03
2.00000000e-03
2.00000000e-03
2.00000000e-03
2.00000000e-03
2.00000000e-03
2.00000000e-03
2.00000000e-03
2.00000000e-03
2.00000000e-03
2.00000000e-03
2.00000000e-03
2.00000000e-03
2.00000000e-03
2.00000000e-03
2.00000000e-03
2.00000000e-03
2.00000000e-03
2.00000000e-03
2.00000000e-03
2.00000000e-03
2.00000000e-03
2.00000000e-03
2.00000000e-03
2.00000000e-03
2.00000000e-03
2.00000000e-03
2.00000000e-03
2.00000000e-03
2.00000000e-03
2.00000000e-03
2.00000000e-03
2.00000000e-03
2.00000000e-03
2.00000000e-03
2.00000000e-03
2.00000000e-03
2.00000000e-03
2.00000000e-03
2.00000000e-03
2.00000000e-03
2.00000000e-03
2.00000000e-03
2.00000000e-03
2.00000000e-03
2.00000000e-03
2.00000000e-03
2.00000000e-03
2.00000000e-03
2.00000000e-03
2.00000000e-03
2.00000000e-03
2.00000000e-03
2.00000000e-03
2.00000000e-03
2.00000000e-03
2.00000000e-03
2.00000000e-03
2.00000000e-03
2.00000000e-03
2.00000000e-03
2.00000000e-03
2.00000000e-03
2.00000000e-03
2.00000000e-03
2.00000000e-03
2.00000000e-03
2.00000000e-03
2.00000000e-03
2.00000000e-03
2.00000000e-03
2.00000000e-03
2.00000000e-03
2.00000000e-03
2.00000000e-03
2.00000000e-03
2.00000000e-03
2.00000000e-03
2.00000000e-03
2.00000000e-03
2.00000000e-03
2.00000000e-03
2.00000000e-03
2.00000000e-03
2.00000000e-03
2.00000000e-03
2.00000000e-03
2.00000000e-03
2.00000000e-03
2.00000000e-03
2.00000000e-03
2.00000000e-03
2.00000000e-03
2.00000000e-03
2.00000000e-03
2.00000000e-03
2.00000000e-03
2.00000000e-03
2.00000000e-03
2.00000000e-03
2.00000000e-03
2.00000000e-03
2.00000000e-03
2.00000000e-03
2.00000000e-03
2.00000000e-03
2.00000000e-03
2.00000000e-03
2.00000000e-03
2.00000000e-03
2.00000000e-03
2.00000000e-03
2.00000000e-03
2.00000000e-03
2.00000000e-03
2.00000000e-03
2.00000000e-03
2.00000000e-03
2.00000000e-03
2.00000000e-03
2.00000000e-03
2.00000000e-03
2.00000000e-03
2.00000000e-03
2.00000000e-03
2.00000000e-03
2.00000000e-03
2.00000000e-03
2.00000000e-03
2.00000000e-03
2.00000000e-03
2.00000000e-03
2.00000000e-03
2.00000000e-03
2.00000000e-03
2.00000000e-03
2.00000000e-03
2.00000000e-03
2.00000000e-03
2.00000000e-03
2.00000000e-03
2.00000000e-03
2.00000000e-03
2.00000000e-03
2.00000000e-03
2.00000000e-03
2.00000000e-03
2.00000000e-03
2.00000000e-03
2.00000000e-03
2.00000000e-03
2.00000000e-03
2.00000000e-03
2.00000000e-03
2.00000000e-03
2.00000000e-03
2.00000000e-03
2.00000000e-03
2.00000000e-03
2.00000000e-03
2.00000000e-03
2.00000000e-03
2.00000000e-03
2.00000000e-03
2.00000000e-03
2.00000000e-03
2.00000000e-03
2.00000000e-03
2.00000000e-03
2.00000000e-03
2.00000000e-03
2.00000000e-03
2.00000000e-03
2.00000000e-03
2.00000000e-03
2.00000000e-03
2.00000000e-03
2.00000000e-03
2.00000000e-03
2.00000000e-03
2.00000000e-03
2.00000000e-03
2.00000000e-03
2.00000000e-03
2.00000000e-03
2.00000000e-03
2.00000000e-03
2.00000000e-03
2.00000000e-03
2.00000000e-03
2.00000000e-03
2.00000000e-03
2.00000000e-03
2.00000000e-03
2.00000000e-03
2.00000000e-03
2.00000000e-03
2.00000000e-03
2.00000000e-03
2.00000000e-03
2.00000000e-03
2.00000000e-03
2.00000000e-03
2.00000000e-03
2.00000000e-03
2.00000000e-03
2.00000000e-03
2.00000000e-03
2.00000000e-03
2.00000000e-03
2.00000000e-03
2.00000000e-03
2.00000000e-03
2.00000000e-03
2.00000000e-03
2.00000000e-03
2.00000000e-03
2.00000000e-03
2.00000000e-03
2.00000000e-03
2.00000000e-03
2.00000000e-03
2.00000000e-03
2.00000000e-03
2.00000000e-03
2.00000000e-03
2.00000000e-03
2.00000000e-03
2.00000000e-03
2.00000000e-03
2.00000000e-03
2.00000000e-03
2.00000000e-03
2.00000000e-03
2.00000000e-03
2.00000000e-03
2.00000000e-03
2.00000000e-03
2.00000000e-03
2.00000000e-03
2.00000000e-03
2.00000000e-03
2.00000000e-03
2.00000000e-03
2.00000000e-03
2.00000000e-03
2.00000000e-03
2.00000000e-03
2.00000000e-03
2.00000000e-03
2.00000000e-03
2.00000000e-03
2.00000000e-03
2.00000000e-03
2.00000000e-03
2.00000000e-03
2.00000000e-03
2.00000000e-03
2.00000000e-03
2.00000000e-03
2.00000000e-03
2.00000000e-03
2.00000000e-03
2.00000000e-03
2.00000000e-03
2.00000000e-03
2.00000000e-03
2.00000000e-03
2.00000000e-03
2.00000000e-03
2.00000000e-03
2.00000000e-03
2.00000000e-03
2.00000000e-03
2.00000000e-03
2.00000000e-03
2.00000000e-03
2.00000000e-03
2.00000000e-03
2.00000000e-03
2.00000000e-03
2.00000000e-03
2.00000000e-03
2.00000000e-03
2.00000000e-03
2.00000000e-03
2.00000000e-03
2.00000000e-03
2.00000000e-03
2.00000000e-03
2.00000000e-03
2.00000000e-03
2.00000000e-03
2.00000000e-03
2.00000000e-03
2.00000000e-03
2.00000000e-03
2.00000000e-03
2.00000000e-03
2.00000000e-03
2.00000000e-03
2.00000000e-03
2.00000000e-03
2.00000000e-03
2.00000000e-03
2.00000000e-03
2.00000000e-03
2.00000000e-03
2.00000000e-03
2.00000000e-03
2.00000000e-03
2.00000000e-03
2.00000000e-03
2.00000000e-03
2.00000000e-03
2.00000000e-03
2.00000000e-03
2.00000000e-03
2.00000000e-03
2.00000000e-03
2.00000000e-03
2.00000000e-03
2.00000000e-03
2.00000000e-03
2.00000000e-03
2.00000000e-03
2.00000000e-03
2.00000000e-03
2.00000000e-03
2.00000000e-03
2.00000000e-03
2.00000000e-03
2.00000000e-03
2.00000000e-03
2.00000000e-03
2.00000000e-03
2.00000000e-03
2.00000000e-03
2.00000000e-03
2.00000000e-03
2.00000000e-03
2.00000000e-03
2.00000000e-03
2.00000000e-03
2.00000000e-03
2.00000000e-03
2.00000000e-03
2.00000000e-03
2.00000000e-03
2.00000000e-03
2.00000000e-03
2.00000000e-03
2.00000000e-03
2.00000000e-03
2.00000000e-03
2.00000000e-03
2.00000000e-03
2.00000000e-03
2.00000000e-03
2.00000000e-03
2.00000000e-03
2.00000000e-03
2.00000000e-03
2.00000000e-03
2.00000000e-03
2.00000000e-03
2.00000000e-03
2.00000000e-03
2.00000000e-03
2.00000000e-03
2.00000000e-03
2.00000000e-03
2.00000000e-03
2.00000000e-03
2.00000000e-03
2.00000000e-03
2.00000000e-03
2.00000000e-03
2.00000000e-03
2.00000000e-03
2.00000000e-03
2.00000000e-03
2.00000000e-03
2.00000000e-03
2.00000000e-03
2.00000000e-03
2.00000000e-03
2.00000000e-03
2.00000000e-03
2.00000000e-03
2.00000000e-03
2.00000000e-03
2.00000000e-03
2.00000000e-03
2.00000000e-03
2.00000000e-03
2.00000000e-03
2.00000000e-03
2.00000000e-03
2.00000000e-03
2.00000000e-03
2.00000000e-03
2.00000000e-03
2.00000000e-03
2.00000000e-03
2.00000000e-03
2.00000000e-03
2.00000000e-03
