# vtk DataFile Version 2.0
Particle data
ASCII
DATASET POLYDATA
POINTS 469 double
3.39613858e-02	-1.17972501e-02	8.76177102e-03
2.63643968e-02	-1.95646219e-02	1.37949567e-02
1.50356337e-02	-2.81800771e-02	5.56910980e-03
2.58860344e-02	1.92908265e-02	1.64259212e-02
2.09781004e-02	-1.92192801e-02	2.54701329e-03
3.85816248e-02	-1.12849354e-02	2.64026819e-03
3.24275447e-02	-1.21753849e-02	1.14418988e-02
2.33662837e-02	2.50704076e-03	1.77866831e-02
2.18661581e-02	-2.91656355e-02	1.80660785e-02
-1.35244286e-02	-3.38846095e-02	1.75128033e-02
4.00245350e-02	-3.47711129e-03	1.78941986e-02
2.77795347e-02	-1.64288976e-02	1.82104696e-02
1.12855273e-02	-3.88710895e-02	1.16063603e-02
1.49646396e-02	-2.48511139e-02	3.10347635e-03
3.87654992e-02	-7.88722946e-03	1.45768727e-02
1.17518101e-02	-8.67287778e-03	1.38411341e-02
2.67554013e-02	1.37824634e-02	1.48223848e-02
2.66695206e-02	-2.49496873e-02	2.16476711e-03
2.74386347e-02	6.04854951e-03	1.24681853e-02
3.84537891e-02	-1.09832619e-03	1.10909524e-02
3.71825027e-02	3.94397726e-03	2.00705453e-03
1.71896376e-02	-3.26207240e-02	1.80407591e-02
-6.44558124e-03	-2.13656874e-02	6.12902552e-03
1.58334820e-02	-1.51807594e-02	2.16652087e-03
1.08348816e-02	-2.53915551e-02	2.16929348e-03
-5.12312527e-03	-2.83160590e-02	9.28014219e-03
3.87376186e-02	9.97037762e-03	1.40586544e-02
2.30834268e-02	-2.85648974e-02	1.37076294e-02
3.01499609e-02	2.19668094e-02	1.38321239e-02
2.23548826e-02	-9.43214759e-03	1.41802370e-02
2.21704298e-02	-2.61863630e-02	1.04295178e-02
3.16568352e-02	-2.44427409e-02	2.20996615e-03
2.73485303e-02	-2.25418430e-02	5.59374388e-03
8.00709454e-03	-2.84774370e-02	1.80944128e-02
-3.81509432e-03	-3.92728379e-02	1.14688543e-02
1.63781118e-02	-3.09246741e-02	1.13775660e-02
3.84610460e-02	-1.02244463e-02	6.82697429e-03
3.24195433e-02	1.35561620e-02	1.01469976e-02
2.88339508e-02	-1.47925993e-02	1.11677044e-02
1.57152138e-02	-2.00557965e-02	2.07519303e-03
3.40986880e-02	1.10692191e-02	8.53261842e-03
3.12698985e-02	-2.47263547e-02	1.53542745e-02
-5.03635573e-03	-3.75377576e-02	2.09592002e-03
2.78465657e-02	-8.27244875e-03	1.43259069e-02
4.47364331e-03	-1.81732823e-02	1.62174480e-02
3.64252645e-02	4.09503549e-03	1.16534546e-02
3.05431285e-02	-1.74840350e-03	1.45173719e-02
2.62956718e-02	-4.14260277e-03	6.69038227e-03
1.76810276e-02	-1.22165537e-02	1.47508441e-02
2.71257563e-02	-9.59924834e-03	1.81378701e-02
2.19682371e-02	-7.44955066e-03	1.90757919e-03
1.92101636e-02	-9.34226501e-03	6.31317270e-03
2.55405814e-02	1.51852727e-02	1.86146980e-02
2.31878579e-02	-7.41914444e-04	6.30784728e-03
-1.48961378e-03	-2.08313173e-02	1.34250363e-02
3.41188118e-02	1.90049569e-02	1.35295461e-02
-1.50693223e-02	-3.70869238e-02	8.00794790e-03
3.27238582e-02	9.74667239e-04	1.52520790e-02
4.10838737e-04	-3.08844352e-02	1.38242158e-02
-2.96850877e-03	-2.78657575e-02	1.64373946e-02
2.37228984e-03	-3.54430136e-02	1.81855544e-02
6.73323533e-03	-2.86384532e-02	9.85046926e-03
1.95857314e-02	-1.40604994e-02	1.77367996e-02
2.35325434e-02	1.03287862e-02	1.19746214e-02
1.50386757e-02	-3.23569867e-02	3.70175716e-03
4.03826394e-02	2.79351066e-03	6.04937900e-03
-9.56857267e-03	-3.75167793e-02	3.25258301e-03
2.58342852e-02	-1.87284201e-02	1.79966347e-02
-2.39641935e-03	-3.09835220e-02	5.89190236e-03
8.09373307e-03	-3.96435891e-02	9.66672304e-03
3.68667171e-02	1.29030449e-02	6.32771850e-03
1.90109602e-02	-3.30485672e-02	2.07651617e-03
3.39609314e-02	-7.05238762e-03	1.82037374e-02
3.60308218e-02	6.80206245e-03	9.04469219e-03
3.45622283e-02	-1.93265900e-02	5.81797861e-03
3.86848031e-02	8.71500214e-03	1.85569715e-02
2.88777973e-02	7.08812707e-03	7.50826791e-03
2.75845195e-02	-1.23626393e-02	9.45821182e-03
6.30866883e-03	-3.87447297e-02	1.77036533e-02
8.78480348e-03	-1.52993974e-02	1.59191804e-02
3.23205600e-02	1.54798015e-03	5.96343614e-03
7.17199048e-03	-3.09810250e-02	6.61946140e-03
3.73396636e-03	-2.99140938e-02	1.83804885e-03
2.86249117e-03	-2.72989230e-02	1.80739863e-02
2.01846358e-03	-3.33819903e-02	2.30533264e-03
4.04791918e-02	2.33015233e-03	1.82190314e-03
3.21817386e-02	-1.85964963e-02	1.45734736e-02
8.33093054e-03	-7.45084974e-03	1.07712699e-02
7.16091185e-03	-3.60987518e-02	6.32682399e-03
1.13641236e-02	-1.00829757e-02	7.72601040e-03
3.62956607e-02	5.55400976e-03	5.17012464e-03
2.97015704e-02	-9.24008231e-03	2.05970046e-03
1.90672386e-02	-3.27464102e-02	6.13970050e-03
3.83128498e-02	1.19674874e-02	9.92248202e-03
1.88009665e-02	-2.49110224e-02	7.29772960e-03
2.29909692e-02	-3.28949794e-02	8.51637076e-03
1.66889222e-02	3.16857128e-03	7.01740152e-03
-1.34104002e-03	-2.72540124e-02	1.18979187e-02
1.44316575e-02	-2.28156767e-02	1.78780987e-02
1.59883694e-02	-2.20236901e-02	7.28494075e-03
3.22891296e-03	-2.23774994e-02	7.37030777e-03
1.56353266e-03	-2.14852063e-02	1.12838185e-02
2.73744368e-02	9.85774522e-03	1.36037807e-02
1.13915174e-02	-3.77888351e-02	1.71130886e-02
4.59471953e-04	-2.86221782e-02	8.37525515e-03
2.47837718e-02	-2.59613519e-03	1.77778812e-03
1.75721009e-02	-6.09392636e-03	3.00812691e-03
1.61960000e-02	-9.17154463e-03	6.65178467e-03
-1.08579476e-02	-3.43441671e-02	1.83738113e-03
2.32020400e-02	-1.74373691e-02	4.97059689e-03
6.82190777e-03	-1.18092914e-02	4.29231137e-03
3.65416174e-02	7.87022634e-03	1.80461726e-02
3.29124036e-02	-5.80910843e-04	1.19994396e-02
2.23137096e-02	8.24716153e-03	1.74150159e-03
7.20613574e-03	-3.24171922e-02	1.47607864e-02
-1.27051570e-03	-2.94502993e-02	2.11076721e-03
3.62862900e-02	1.66090553e-02	1.02089711e-02
-9.06833264e-03	-3.13483464e-02	6.84125830e-03
2.21434076e-02	-2.21004229e-02	1.10546649e-02
3.20166346e-02	-2.42835495e-02	6.66013337e-03
3.19470196e-02	-5.05207558e-03	1.95214420e-03
1.53932749e-02	-1.74100368e-02	1.57059017e-02
3.98938077e-02	2.92986105e-04	1.76946566e-02
4.35396887e-03	-4.03047296e-02	6.07022190e-03
1.49269959e-02	-3.77845233e-02	1.82024256e-02
3.79510383e-02	1.49566192e-04	4.48128831e-03
3.78710389e-02	-1.26328707e-02	5.55961229e-03
2.87359559e-02	-1.60777524e-02	7.65107138e-03
2.82842539e-02	1.19056123e-02	1.02821946e-02
2.51037564e-02	6.47686405e-03	1.94445228e-03
3.16359522e-02	1.26275066e-02	5.77601488e-03
1.75265140e-02	-3.68990904e-02	4.53073664e-03
3.28851438e-02	4.50633902e-03	1.81889376e-02
2.81836006e-02	-2.22975105e-02	1.26381604e-02
1.82139303e-02	-1.44524584e-02	9.08193286e-03
1.12259753e-03	-3.86741319e-02	1.32519011e-02
2.22174670e-02	-2.50455114e-02	3.96779139e-03
3.50043308e-02	-1.23634102e-02	1.92657465e-03
1.19926206e-02	-1.86693153e-02	1.31272749e-02
3.23279035e-02	1.40702757e-02	1.83802078e-02
2.88052427e-03	-3.23690800e-02	1.56211772e-02
3.52016440e-02	-1.76738855e-03	2.30133157e-03
3.60190307e-02	-9.11858251e-04	1.44402460e-02
3.48724195e-02	1.66941560e-02	5.97393985e-03
3.28742661e-02	-8.62908790e-03	8.40350164e-03
3.98825251e-02	-2.40273523e-03	2.32842708e-03
7.30248605e-03	-6.10082168e-03	7.97904568e-03
3.93011039e-02	-6.46581722e-03	2.04510508e-03
1.45620012e-02	-1.33009377e-02	8.96324742e-03
5.35442917e-03	-2.26732409e-02	1.70246033e-02
3.28882370e-02	-4.47668053e-03	1.09175259e-02
9.33804365e-03	-1.56379403e-02	1.30023949e-02
3.72019149e-02	-1.54555270e-02	1.14594919e-02
3.90440028e-02	5.87720160e-03	1.45529043e-02
2.55730712e-02	-5.09860774e-03	1.14674825e-02
2.52764195e-02	1.48274715e-03	1.03879909e-02
3.60601998e-02	-1.67904550e-02	5.57607828e-03
1.78886150e-02	-1.92775720e-02	5.19562315e-03
7.89258526e-03	-3.83907328e-02	1.44622351e-02
2.86399975e-02	-3.78036043e-03	2.04660343e-03
2.28793591e-02	-2.92815669e-02	7.08553854e-03
3.73170839e-02	-1.41125015e-02	2.02079036e-03
4.18343020e-03	-3.61462695e-02	9.76161270e-03
2.97839562e-02	1.79318100e-02	1.81961309e-02
6.09970988e-03	-2.53241087e-02	1.93287711e-03
2.45993461e-02	-1.67889516e-02	1.28757858e-02
2.19234470e-02	-8.17585066e-03	8.48112561e-03
3.64667103e-02	-4.35986672e-03	4.90183068e-03
2.60934374e-02	2.20789847e-02	1.78724102e-02
7.40641349e-03	-1.45695182e-02	9.00282205e-03
3.84098706e-02	-1.23959673e-02	9.46820107e-03
-5.53420939e-03	-3.53132619e-02	9.80687811e-03
2.74436326e-02	-2.37074164e-03	1.13153420e-02
2.89458277e-02	-1.60151568e-02	1.44727358e-02
2.81403373e-02	-1.00964229e-02	5.78867697e-03
3.26454435e-02	-1.63534230e-02	1.21979890e-02
2.76525477e-02	-2.87030221e-02	1.80233761e-03
1.15551792e-02	-3.41091845e-02	1.81739358e-02
3.56186139e-02	-1.81580338e-02	1.80069697e-02
9.04226801e-03	-1.89414313e-02	5.70921507e-03
2.77634076e-02	1.71523485e-02	1.34920085e-02
4.87376640e-03	-3.30143177e-02	4.90310061e-03
2.43201931e-02	-1.27680464e-02	1.83141920e-02
2.02703654e-02	4.81091162e-03	8.93200663e-03
1.18387904e-02	-2.90483289e-02	1.14115230e-02
3.59396334e-02	-1.81357826e-02	9.40242383e-03
3.64710559e-02	-4.44927190e-03	1.34619154e-02
2.90056556e-02	-2.78970234e-02	1.32483949e-02
2.84980267e-02	-2.36295507e-03	1.80675931e-02
3.48808364e-02	-1.99873638e-02	2.01091132e-03
1.41296976e-02	-3.07963058e-03	1.59870975e-02
7.35593160e-03	-2.90142128e-02	1.37955702e-02
-4.20542410e-03	-1.92419542e-02	1.00011237e-02
2.77737258e-02	1.74978986e-02	8.01406038e-03
1.29264905e-02	-2.40370254e-02	5.48957375e-03
2.50658931e-02	5.88343317e-03	1.80577600e-02
1.06475779e-02	-3.29201733e-02	1.02677535e-02
1.98423419e-02	-8.09437475e-03	1.16389695e-02
2.57004110e-02	-7.97996511e-03	8.53347473e-03
-2.41629997e-03	-2.30600976e-02	1.75790446e-02
3.91810193e-02	7.26649896e-03	1.09209663e-02
3.56134149e-02	1.85438494e-03	7.85579190e-03
1.42805182e-02	-1.10713305e-03	9.25822639e-03
1.57309872e-02	-3.69907466e-02	1.17286698e-02
7.51692965e-03	-6.77382135e-03	1.54618248e-02
3.07018869e-02	-1.41644976e-03	8.45519209e-03
2.68638622e-02	9.11050642e-04	1.47058376e-02
3.78929613e-02	1.37471828e-02	1.70771680e-02
2.01199863e-02	-2.57451818e-02	1.47577139e-02
3.14716252e-02	1.00539313e-02	1.42463292e-02
-2.95438789e-03	-3.75340515e-02	1.55568106e-02
1.05820238e-02	-6.21904965e-03	2.14110175e-03
-5.49814488e-03	-3.58982125e-02	1.41393202e-02
5.20264160e-03	-2.11053298e-02	1.36429939e-02
2.51866011e-02	-2.19293207e-02	1.48596503e-02
1.44445824e-02	-2.74134369e-02	2.14288253e-03
[...]
POINT_DATA 469
SCALARS Radius double 1
LOOKUP_TABLE default
2.00000000e-03
2.00000000e-03
2.00000000e-03
2.00000000e-03
2.00000000e-03
2.00000000e-03
2.00000000e-03
2.00000000e-03
2.00000000e-03
2.00000000e-03
2.00000000e-03
2.00000000e-03
2.00000000e-03
2.00000000e-03
2.00000000e-03
2.00000000e-03
2.00000000e-03
2.00000000e-03
2.00000000e-03
2.00000000e-03
2.00000000e-03
2.00000000e-03
2.00000000e-03
2.00000000e-03
2.00000000e-03
2.00000000e-03
2.00000000e-03
2.00000000e-03
2.00000000e-03
2.00000000e-03
2.00000000e-03
2.00000000e-03
2.00000000e-03
2.00000000e-03
2.00000000e-03
2.00000000e-03
2.00000000e-03
2.00000000e-03
2.00000000e-03
2.00000000e-03
2.00000000e-03
2.00000000e-03
2.00000000e-03
2.00000000e-03
2.00000000e-03
2.00000000e-03
2.00000000e-03
2.00000000e-03
2.00000000e-03
2.00000000e-03
2.00000000e-03
2.00000000e-03
2.00000000e-03
2.00000000e-03
2.00000000e-03
2.00000000e-03
2.00000000e-03
2.00000000e-03
2.00000000e-03
2.00000000e-03
2.00000000e-03
2.00000000e-03
2.00000000e-03
2.00000000e-03
2.00000000e-03
2.00000000e-03
2.00000000e-03
2.00000000e-03
2.00000000e-03
2.00000000e-03
2.00000000e-03
2.00000000e-03
2.00000000e-03
2.00000000e-03
2.00000000e-03
2.00000000e-03
2.00000000e-03
2.00000000e-03
2.00000000e-03
2.00000000e-03
2.00000000e-03
2.00000000e-03
2.00000000e-03
2.00000000e-03
2.00000000e-03
2.00000000e-03
2.00000000e-03
2.00000000e-03
2.00000000e-03
2.00000000e-03
2.00000000e-03
2.00000000e-03
2.00000000e-03
2.00000000e-03
2.00000000e-03
2.00000000e-03
2.00000000e-03
2.00000000e-03
2.00000000e-03
2.00000000e-03
2.00000000e-03
2.00000000e-03
2.00000000e-03
2.00000000e-03
2.00000000e-03
2.00000000e-03
2.00000000e-03
2.00000000e-03
2.00000000e-03
2.00000000e-03
2.00000000e-03
2.00000000e-03
2.00000000e-03
2.00000000e-03
2.00000000e-03
2.00000000e-03
2.00000000e-03
2.00000000e-03
2.00000000e-03
2.00000000e-03
2.00000000e-03
2.00000000e-03
2.00000000e-03
2.00000000e-03
2.00000000e-03
2.00000000e-03
2.00000000e-03
2.00000000e-03
2.00000000e-03
2.00000000e-03
2.00000000e-03
2.00000000e-03
2.00000000e-03
2.00000000e-03
2.00000000e-03
2.00000000e-03
2.00000000e-03
2.00000000e-03
2.00000000e-03
2.00000000e-03
2.00000000e-03
2.00000000e-03
2.00000000e-03
2.00000000e-03
2.00000000e-03
2.00000000e-03
2.00000000e-03
2.00000000e-03
2.00000000e-03
2.00000000e-03
2.00000000e-03
2.00000000e-03
2.00000000e-03
2.00000000e-03
2.00000000e-03
2.00000000e-03
2.00000000e-03
2.00000000e-03
2.00000000e-03
2.00000000e-03
2.00000000e-03
2.00000000e-03
2.00000000e-03
2.00000000e-03
2.00000000e-03
2.00000000e-03
2.00000000e-03
2.00000000e-03
2.00000000e-03
2.00000000e-03
2.00000000e-03
2.00000000e-03
2.00000000e-03
2.00000000e-03
2.00000000e-03
2.00000000e-03
2.00000000e-03
2.00000000e-03
2.00000000e-03
2.00000000e-03
2.00000000e-03
2.00000000e-03
2.00000000e-03
2.00000000e-03
2.00000000e-03
2.00000000e-03
2.00000000e-03
2.00000000e-03
2.00000000e-03
2.00000000e-03
2.00000000e-03
2.00000000e-03
2.00000000e-03
2.00000000e-03
2.00000000e-03
2.00000000e-03
2.00000000e-03
2.00000000e-03
2.00000000e-03
2.00000000e-03
2.00000000e-03
2.00000000e-03
2.00000000e-03
2.00000000e-03
2.00000000e-03
2.00000000e-03
2.00000000e-03
2.00000000e-03
2.00000000e-03
2.00000000e-03
2.00000000e-03
2.00000000e-03
2.00000000e-03
2.00000000e-03
2.00000000e-03
2.00000000e-03
2.00000000e-03
2.00000000e-03
2.00000000e-03
2.00000000e-03
2.00000000e-03
2.00000000e-03
2.00000000e-03
2.00000000e-03
2.00000000e-03
2.00000000e-03
2.00000000e-03
2.00000000e-03
2.00000000e-03
2.00000000e-03
2.00000000e-03
2.00000000e-03
2.00000000e-03
2.00000000e-03
2.00000000e-03
2.00000000e-03
2.00000000e-03
2.00000000e-03
2.00000000e-03
2.00000000e-03
2.00000000e-03
2.00000000e-03
2.00000000e-03
2.00000000e-03
2.00000000e-03
2.00000000e-03
2.00000000e-03
2.00000000e-03
2.00000000e-03
2.00000000e-03
2.00000000e-03
2.00000000e-03
2.00000000e-03
2.00000000e-03
2.00000000e-03
2.00000000e-03
2.00000000e-03
2.00000000e-03
2.00000000e-03
2.00000000e-03
2.00000000e-03
2.00000000e-03
2.00000000e-03
2.00000000e-03
2.00000000e-03
2.00000000e-03
2.00000000e-03
2.00000000e-03
2.00000000e-03
2.00000000e-03
2.00000000e-03
2.00000000e-03
2.00000000e-03
2.00000000e-03
2.00000000e-03
2.00000000e-03
2.00000000e-03
2.00000000e-03
2.00000000e-03
2.00000000e-03
2.00000000e-03
2.00000000e-03
2.00000000e-03
2.00000000e-03
2.00000000e-03
2.00000000e-03
2.00000000e-03
2.00000000e-03
2.00000000e-03
2.00000000e-03
2.00000000e-03
2.00000000e-03
2.00000000e-03
2.00000000e-03
2.00000000e-03
2.00000000e-03
2.00000000e-03
2.00000000e-03
2.00000000e-03
2.00000000e-03
2.00000000e-03
2.00000000e-03
2.00000000e-03
2.00000000e-03
2.00000000e-03
2.00000000e-03
2.00000000e-03
2.00000000e-03
2.00000000e-03
2.00000000e-03
2.00000000e-03
2.00000000e-03
2.00000000e-03
2.00000000e-03
2.00000000e-03
2.00000000e-03
2.00000000e-03
2.00000000e-03
2.00000000e-03
2.00000000e-03
2.00000000e-03
2.00000000e-03
2.00000000e-03
2.00000000e-03
2.00000000e-03
2.00000000e-03
2.00000000e-03
2.00000000e-03
2.00000000e-03
2.00000000e-03
2.00000000e-03
2.00000000e-03
2.00000000e-03
2.00000000e-03
2.00000000e-03
2.00000000e-03
2.00000000e-03
2.00000000e-03
2.00000000e-03
2.00000000e-03
2.00000000e-03
2.00000000e-03
2.00000000e-03
2.00000000e-03
2.00000000e-03
2.00000000e-03
2.00000000e-03
2.00000000e-03
2.00000000e-03
2.00000000e-03
2.00000000e-03
2.00000000e-03
2.00000000e-03
2.00000000e-03
2.00000000e-03
2.00000000e-03
2.00000000e-03
2.00000000e-03
2.00000000e-03
2.00000000e-03
2.00000000e-03
2.00000000e-03
2.00000000e-03
2.00000000e-03
2.00000000e-03
2.00000000e-03
2.00000000e-03
2.00000000e-03
2.00000000e-03
2.00000000e-03
2.00000000e-03
2.00000000e-03
2.00000000e-03
2.00000000e-03
2.00000000e-03
2.00000000e-03
2.00000000e-03
2.00000000e-03
2.00000000e-03
2.00000000e-03
2.00000000e-03
2.00000000e-03
2.00000000e-03
2.00000000e-03
2.00000000e-03
2.00000000e-03
2.00000000e-03
2.00000000e-03
2.00000000e-03
2.00000000e-03
2.00000000e-03
2.00000000e-03
2.00000000e-03
2.00000000e-03
2.00000000e-03
2.00000000e-03
2.00000000e-03
2.00000000e-03
2.00000000e-03
2.00000000e-03
2.00000000e-03
2.00000000e-03
2.00000000e-03
2.00000000e-03
2.00000000e-03
2.00000000e-03
2.00000000e-03
2.00000000e-03
2.00000000e-03
2.00000000e-03
2.00000000e-03
2.00000000e-03
2.00000000e-03
2.00000000e-03
2.00000000e-03
2.00000000e-03
2.00000000e-03
2.00000000e-03
2.00000000e-03
2.00000000e-03
2.00000000e-03
2.00000000e-03
2.00000000e-03
2.00000000e-03
2.00000000e-03
2.00000000e-03
2.00000000e-03
2.00000000e-03
2.00000000e-03
2.00000000e-03
2.00000000e-03
2.00000000e-03
2.00000000e-03
2.00000000e-03
2.00000000e-03
2.00000000e-03
2.00000000e-03
2.00000000e-03
2.00000000e-03
2.00000000e-03
2.00000000e-03
2.00000000e-03
2.00000000e-03
2.00000000e-03
2.00000000e-03
2.00000000e-03
2.00000000e-03
2.00000000e-03
2.00000000e-03
2.00000000e-03
2.00000000e-03
2.00000000e-03
2.00000000e-03
2.00000000e-03
2.00000000e-03
2.00000000e-03
2.00000000e-03
2.00000000e-03
2.00000000e-03
2.00000000e-03
2.00000000e-03
2.00000000e-03
2.00000000e-03
2.00000000e-03
2.00000000e-03
2.00000000e-03
2.00000000e-03
2.00000000e-03
2.00000000e-03
