# vtk DataFile Version 2.0
Particle data
ASCII
DATASET POLYDATA
POINTS 469 double
3.32064887e-02	-1.40121617e-02	8.57777735e-03
2.41919341e-02	-2.17308724e-02	1.39125008e-02
1.22373634e-02	-2.95902799e-02	5.63984320e-03
2.76749414e-02	1.76366041e-02	1.74155209e-02
1.90285803e-02	-2.15553828e-02	2.48680905e-03
3.75332123e-02	-1.42886286e-02	2.55924972e-03
3.10410140e-02	-1.47051172e-02	1.12939649e-02
2.42167714e-02	5.09826041e-04	1.79062550e-02
1.90300343e-02	-3.04390027e-02	1.80955337e-02
-1.26781218e-02	-2.97113473e-02	1.76958444e-02
3.93243266e-02	-7.63216275e-03	1.76037514e-02
2.58527212e-02	-1.87596070e-02	1.81914794e-02
7.71471801e-03	-3.92060379e-02	1.15843126e-02
1.25849820e-02	-2.55635984e-02	2.92271593e-03
3.81274297e-02	-1.14064045e-02	1.44455921e-02
1.60788232e-02	-3.75245198e-03	1.42899970e-02
2.86408003e-02	1.29216654e-02	1.46299779e-02
2.40697004e-02	-2.76016831e-02	2.07712867e-03
2.91977357e-02	5.22609629e-03	1.28766086e-02
3.81789011e-02	-4.79763134e-03	1.08923685e-02
3.70509802e-02	8.38500398e-05	2.01227396e-03
1.38757500e-02	-3.44421069e-02	1.80387145e-02
2.67151096e-03	-1.13691806e-02	6.95568086e-03
1.60212307e-02	-1.43665832e-02	2.21993587e-03
8.47731187e-03	-2.58387700e-02	2.22293558e-03
-1.27052857e-03	-1.88599254e-02	9.92172287e-03
3.94300871e-02	7.14790036e-03	1.38602621e-02
2.02626388e-02	-3.08175597e-02	1.37248164e-02
3.30707363e-02	1.98518502e-02	1.49329718e-02
2.19638247e-02	-1.14811140e-02	1.38732337e-02
1.92008653e-02	-2.84212097e-02	1.04042642e-02
2.96167715e-02	-2.77534281e-02	2.28428015e-03
2.47863542e-02	-2.54016349e-02	5.64413252e-03
6.29230183e-03	-2.75317039e-02	1.78660529e-02
-6.74266671e-03	-3.73379346e-02	1.10543718e-02
1.39450490e-02	-3.16716687e-02	1.11668881e-02
3.81265590e-02	-1.28561686e-02	6.65414468e-03
3.38629065e-02	1.03427236e-02	1.00897138e-02
2.72201626e-02	-1.74087198e-02	1.09749951e-02
1.46428080e-02	-1.93689356e-02	2.29528172e-03
3.51408033e-02	7.71858852e-03	8.20716266e-03
2.87075071e-02	-2.73073277e-02	1.54474815e-02
-8.50122188e-03	-3.63323856e-02	2.09477972e-03
2.72530129e-02	-1.05019552e-02	1.43735827e-02
8.83334612e-03	-9.47751495e-03	1.53934062e-02
3.66777026e-02	1.17419708e-03	1.13226732e-02
3.05823947e-02	-3.95090344e-03	1.43479394e-02
2.70776146e-02	-5.34669839e-03	6.42020839e-03
1.79591044e-02	-1.19593516e-02	1.46851941e-02
2.58801994e-02	-1.25869267e-02	1.81413678e-02
2.18973032e-02	-9.45562052e-03	2.08711140e-03
1.94583723e-02	-1.01832656e-02	5.61446769e-03
2.65999880e-02	1.28039100e-02	1.88283669e-02
2.38929648e-02	-1.10433884e-03	6.07701731e-03
4.34237456e-03	-1.25656793e-02	1.28735085e-02
3.59888177e-02	1.58040533e-02	1.39721456e-02
-1.41332499e-02	-3.32624603e-02	7.67126123e-03
3.29800839e-02	-1.16745920e-03	1.51930802e-02
1.23693982e-03	-2.55386535e-02	1.29507569e-02
-2.59590101e-03	-2.46421401e-02	1.69050659e-02
-1.36652550e-03	-3.51947416e-02	1.82622732e-02
5.99346058e-03	-2.62449455e-02	1.00376293e-02
1.90212100e-02	-1.47514218e-02	1.77691079e-02
2.75000815e-02	1.33441531e-02	1.14015379e-02
1.21102348e-02	-3.36131205e-02	3.82881682e-03
4.03979856e-02	-8.80391640e-04	5.98767673e-03
-1.31419234e-02	-3.71216566e-02	2.73144376e-03
2.35112806e-02	-2.18569788e-02	1.78611524e-02
-3.17376408e-04	-2.39089965e-02	5.90770778e-03
4.84416297e-03	-3.90836008e-02	9.58607350e-03
3.82952217e-02	1.06997352e-02	6.16074558e-03
1.52874039e-02	-3.48546595e-02	2.00961874e-03
3.30616179e-02	-9.94308469e-03	1.79846765e-02
3.67103633e-02	3.61389524e-03	8.75975073e-03
3.23844334e-02	-2.29489549e-02	5.71256636e-03
3.91871069e-02	5.32783337e-03	1.83745027e-02
2.92349023e-02	4.69615572e-03	6.99992143e-03
2.65303551e-02	-1.45161286e-02	9.43005560e-03
2.60967429e-03	-3.96424150e-02	1.78524348e-02
1.17099394e-02	-1.14464610e-02	1.65094185e-02
3.23807922e-02	-9.45107634e-04	5.82718571e-03
5.41332047e-03	-2.90751611e-02	6.73825365e-03
1.03880913e-03	-2.98598643e-02	1.73661159e-03
1.84017844e-03	-2.56203534e-02	1.80722638e-02
-9.35123009e-04	-3.32723205e-02	2.61954655e-03
4.01852030e-02	-1.54219695e-03	1.83438259e-03
3.04547795e-02	-2.11142496e-02	1.47353658e-02
1.53995134e-02	1.99825983e-03	1.16442474e-02
3.48965512e-03	-3.65967199e-02	6.31258450e-03
1.49155808e-02	-5.53773545e-03	8.03385423e-03
3.67980481e-02	2.49623245e-03	4.95033804e-03
2.90025787e-02	-1.15157277e-02	2.29238656e-03
1.53768672e-02	-3.45926335e-02	6.21253790e-03
3.92529238e-02	9.03332217e-03	9.50245524e-03
1.68495966e-02	-2.60736890e-02	7.48849588e-03
2.00369091e-02	-3.46466956e-02	8.62811732e-03
2.11847074e-02	8.00658278e-03	7.03556318e-03
2.68900685e-03	-2.01733003e-02	1.25607463e-02
1.32714773e-02	-2.27569320e-02	1.78533023e-02
1.43327853e-02	-2.19352641e-02	7.81992567e-03
6.03392778e-03	-1.70988209e-02	6.39922175e-03
5.66725775e-03	-1.46653380e-02	1.03514372e-02
2.85785159e-02	9.02730936e-03	1.35615106e-02
7.58579958e-03	-3.89097651e-02	1.69797022e-02
1.88274423e-03	-2.36259284e-02	8.55959061e-03
2.53572405e-02	-3.92928740e-03	1.85303942e-03
1.89277264e-02	-3.13761069e-03	2.30193648e-03
1.76750150e-02	-8.10671094e-03	6.29402926e-03
-1.32314383e-02	-3.33950609e-02	1.89442819e-03
2.14590691e-02	-1.94980882e-02	5.00473373e-03
1.27331755e-02	-4.15825352e-03	4.98886628e-03
3.68783920e-02	4.37718366e-03	1.80864462e-02
3.32075501e-02	-3.51269703e-03	1.16617335e-02
2.46325183e-02	9.64775809e-03	1.70376799e-03
4.07881082e-03	-3.24465325e-02	1.46333248e-02
4.83224959e-04	-2.31025230e-02	2.14277660e-03
3.80067727e-02	1.34865132e-02	1.00194985e-02
-6.17628640e-03	-2.73262255e-02	6.81396810e-03
1.94572399e-02	-2.45692772e-02	1.09492192e-02
2.98351257e-02	-2.68576678e-02	6.51533581e-03
3.12927841e-02	-7.91636011e-03	1.93414813e-03
1.50449676e-02	-1.78123606e-02	1.55608189e-02
3.94676046e-02	-4.05026141e-03	1.75233078e-02
8.17553806e-04	-3.94291963e-02	6.32069746e-03
1.15862720e-02	-3.81264867e-02	1.81928616e-02
3.76183893e-02	-3.14907958e-03	4.44589925e-03
3.66892850e-02	-1.58660124e-02	5.48061869e-03
2.68840822e-02	-1.87798452e-02	7.51128600e-03
3.02792367e-02	1.16569323e-02	9.93795501e-03
2.65009155e-02	6.23987430e-03	1.93837232e-03
3.31745149e-02	1.06433303e-02	5.79226670e-03
1.42996248e-02	-3.73255149e-02	4.34381858e-03
3.32298961e-02	1.78009475e-03	1.82631331e-02
2.51098854e-02	-2.61629463e-02	1.25334725e-02
1.81319599e-02	-1.46270339e-02	9.57981826e-03
-3.28692369e-03	-3.91531732e-02	1.33471143e-02
1.92912985e-02	-2.77914874e-02	3.83281176e-03
3.43877476e-02	-1.49545404e-02	2.07625643e-03
1.22925804e-02	-1.58752400e-02	1.36237046e-02
3.42128939e-02	1.12462728e-02	1.79787918e-02
-6.62953530e-04	-3.29530707e-02	1.58186493e-02
3.46589319e-02	-5.04786559e-03	2.10495078e-03
3.59167500e-02	-3.82150311e-03	1.43485610e-02
3.64136853e-02	1.38853410e-02	5.90276563e-03
3.22890611e-02	-1.09162973e-02	8.49766558e-03
3.94394450e-02	-6.11939207e-03	2.46421457e-03
1.52394708e-02	3.88004423e-03	8.82290071e-03
3.87212388e-02	-9.86946670e-03	2.08439239e-03
1.61655402e-02	-9.35828136e-03	8.93176864e-03
4.34044531e-03	-2.26671823e-02	1.74004127e-02
3.25509279e-02	-7.39852803e-03	1.11171163e-02
1.19357372e-02	-1.02310931e-02	1.51022385e-02
3.55929085e-02	-1.85008241e-02	1.14387241e-02
3.94787225e-02	3.09315902e-03	1.42810459e-02
2.53407876e-02	-7.73074711e-03	1.13797815e-02
2.66839353e-02	-3.47877752e-04	1.05319023e-02
3.44822209e-02	-1.99163284e-02	5.70504125e-03
1.64357054e-02	-2.07254943e-02	5.24274417e-03
3.81512893e-03	-3.95548684e-02	1.43554875e-02
2.87482237e-02	-5.09534666e-03	2.12306678e-03
1.99686727e-02	-3.12197996e-02	6.99195559e-03
3.60763803e-02	-1.76489463e-02	2.16187997e-03
9.05513110e-05	-3.69499846e-02	9.80245578e-03
3.08791835e-02	1.38354791e-02	1.81051527e-02
5.06477115e-03	-2.40135262e-02	1.89405156e-03
2.28479722e-02	-1.89846197e-02	1.29289327e-02
2.21444318e-02	-9.12239511e-03	7.50886163e-03
3.60188157e-02	-7.84573865e-03	4.91813821e-03
3.05573200e-02	2.29415029e-02	1.79443076e-02
1.27770450e-02	-8.38281164e-03	1.03313753e-02
3.71253198e-02	-1.56646218e-02	9.30564617e-03
-5.66827992e-03	-3.14306292e-02	9.49269999e-03
2.81338308e-02	-4.49576768e-03	1.10699281e-02
2.72234834e-02	-1.79278581e-02	1.45020004e-02
2.74667345e-02	-1.27606587e-02	5.53360938e-03
3.08979096e-02	-1.90915873e-02	1.22207895e-02
2.51252998e-02	-3.08763192e-02	1.87194253e-03
8.18047199e-03	-3.53003091e-02	1.80050835e-02
3.36547783e-02	-2.15875748e-02	1.79224289e-02
1.11835986e-02	-1.34796118e-02	5.45167318e-03
2.96898596e-02	1.62913670e-02	1.38130312e-02
2.06647335e-03	-3.30974042e-02	5.15914991e-03
2.28175784e-02	-1.50396137e-02	1.81095018e-02
2.38103186e-02	9.48625286e-03	9.05510903e-03
9.65235092e-03	-2.90465560e-02	1.02987398e-02
3.40199052e-02	-2.15000763e-02	9.52360464e-03
3.59874112e-02	-7.59046494e-03	1.33982766e-02
2.67098557e-02	-3.01404949e-02	1.33423096e-02
2.87403154e-02	-4.50976084e-03	1.80540576e-02
3.32932507e-02	-2.24661732e-02	1.93595736e-03
1.82738879e-02	3.14641132e-03	1.69557393e-02
5.00273886e-03	-2.87815488e-02	1.38259060e-02
4.55954975e-03	-8.81374640e-03	9.94650208e-03
3.12280403e-02	1.93742072e-02	8.02606615e-03
1.12793339e-02	-2.41390328e-02	5.56569481e-03
2.60341402e-02	4.45342271e-03	1.81402497e-02
7.47527947e-03	-3.27206925e-02	1.04452663e-02
2.09517375e-02	-8.17184033e-03	1.20808581e-02
2.55590676e-02	-9.92644977e-03	9.00099992e-03
2.72862002e-03	-1.38091981e-02	1.75569734e-02
3.97714783e-02	4.83689994e-03	1.07444435e-02
3.54180838e-02	-1.53451914e-03	7.62710476e-03
1.98480467e-02	3.95851697e-03	8.79012021e-03
1.22933229e-02	-3.75569809e-02	1.16212314e-02
1.39994463e-02	3.08327391e-03	1.57771153e-02
3.09537698e-02	-3.71905713e-03	8.21716387e-03
2.78755181e-02	-8.92925944e-04	1.47949356e-02
3.88936923e-02	1.05309725e-02	1.69769008e-02
1.68328209e-02	-2.85772388e-02	1.49670185e-02
3.25206470e-02	6.70874238e-03	1.42411872e-02
-6.76571262e-03	-3.69226066e-02	1.52055843e-02
1.33385246e-02	-7.28058896e-04	2.17694142e-03
-7.31311098e-03	-3.34499302e-02	1.37774911e-02
8.31081029e-03	-1.39248616e-02	1.33287305e-02
2.24178880e-02	-2.54352637e-02	1.49367091e-02
1.21026016e-02	-2.78196490e-02	1.91437193e-03
[...]
POINT_DATA 469
SCALARS Radius double 1
LOOKUP_TABLE default
2.00000000e-03
2.00000000e-03
2.00000000e-03
2.00000000e-03
2.00000000e-03
2.00000000e-03
2.00000000e-03
2.00000000e-03
2.00000000e-03
2.00000000e-03
2.00000000e-03
2.00000000e-03
2.00000000e-03
2.00000000e-03
2.00000000e-03
2.00000000e-03
2.00000000e-03
2.00000000e-03
2.00000000e-03
2.00000000e-03
2.00000000e-03
2.00000000e-03
2.00000000e-03
2.00000000e-03
2.00000000e-03
2.00000000e-03
2.00000000e-03
2.00000000e-03
2.00000000e-03
2.00000000e-03
2.00000000e-03
2.00000000e-03
2.00000000e-03
2.00000000e-03
2.00000000e-03
2.00000000e-03
2.00000000e-03
2.00000000e-03
2.00000000e-03
2.00000000e-03
2.00000000e-03
2.00000000e-03
2.00000000e-03
2.00000000e-03
2.00000000e-03
2.00000000e-03
2.00000000e-03
2.00000000e-03
2.00000000e-03
2.00000000e-03
2.00000000e-03
2.00000000e-03
2.00000000e-03
2.00000000e-03
2.00000000e-03
2.00000000e-03
2.00000000e-03
2.00000000e-03
2.00000000e-03
2.00000000e-03
2.00000000e-03
2.00000000e-03
2.00000000e-03
2.00000000e-03
2.00000000e-03
2.00000000e-03
2.00000000e-03
2.00000000e-03
2.00000000e-03
2.00000000e-03
2.00000000e-03
2.00000000e-03
2.00000000e-03
2.00000000e-03
2.00000000e-03
2.00000000e-03
2.00000000e-03
2.00000000e-03
2.00000000e-03
2.00000000e-03
2.00000000e-03
2.00000000e-03
2.00000000e-03
2.00000000e-03
2.00000000e-03
2.00000000e-03
2.00000000e-03
2.00000000e-03
2.00000000e-03
2.00000000e-03
2.00000000e-03
2.00000000e-03
2.00000000e-03
2.00000000e-03
2.00000000e-03
2.00000000e-03
2.00000000e-03
2.00000000e-03
2.00000000e-03
2.00000000e-03
2.00000000e-03
2.00000000e-03
2.00000000e-03
2.00000000e-03
2.00000000e-03
2.00000000e-03
2.00000000e-03
2.00000000e-03
2.00000000e-03
2.00000000e-03
2.00000000e-03
2.00000000e-03
2.00000000e-03
2.00000000e-03
2.00000000e-03
2.00000000e-03
2.00000000e-03
2.00000000e-03
2.00000000e-03
2.00000000e-03
2.00000000e-03
2.00000000e-03
2.00000000e-03
2.00000000e-03
2.00000000e-03
2.00000000e-03
2.00000000e-03
2.00000000e-03
2.00000000e-03
2.00000000e-03
2.00000000e-03
2.00000000e-03
2.00000000e-03
2.00000000e-03
2.00000000e-03
2.00000000e-03
2.00000000e-03
2.00000000e-03
2.00000000e-03
2.00000000e-03
2.00000000e-03
2.00000000e-03
2.00000000e-03
2.00000000e-03
2.00000000e-03
2.00000000e-03
2.00000000e-03
2.00000000e-03
2.00000000e-03
2.00000000e-03
2.00000000e-03
2.00000000e-03
2.00000000e-03
2.00000000e-03
2.00000000e-03
2.00000000e-03
2.00000000e-03
2.00000000e-03
2.00000000e-03
2.00000000e-03
2.00000000e-03
2.00000000e-03
2.00000000e-03
2.00000000e-03
2.00000000e-03
2.00000000e-03
2.00000000e-03
2.00000000e-03
2.00000000e-03
2.00000000e-03
2.00000000e-03
2.00000000e-03
2.00000000e-03
2.00000000e-03
2.00000000e-03
2.00000000e-03
2.00000000e-03
2.00000000e-03
2.00000000e-03
2.00000000e-03
2.00000000e-03
2.00000000e-03
2.00000000e-03
2.00000000e-03
2.00000000e-03
2.00000000e-03
2.00000000e-03
2.00000000e-03
2.00000000e-03
2.00000000e-03
2.00000000e-03
2.00000000e-03
2.00000000e-03
2.00000000e-03
2.00000000e-03
2.00000000e-03
2.00000000e-03
2.00000000e-03
2.00000000e-03
2.00000000e-03
2.00000000e-03
2.00000000e-03
2.00000000e-03
2.00000000e-03
2.00000000e-03
2.00000000e-03
2.00000000e-03
2.00000000e-03
2.00000000e-03
2.00000000e-03
2.00000000e-03
2.00000000e-03
2.00000000e-03
2.00000000e-03
2.00000000e-03
2.00000000e-03
2.00000000e-03
2.00000000e-03
2.00000000e-03
2.00000000e-03
2.00000000e-03
2.00000000e-03
2.00000000e-03
2.00000000e-03
2.00000000e-03
2.00000000e-03
2.00000000e-03
2.00000000e-03
2.00000000e-03
2.00000000e-03
2.00000000e-03
2.00000000e-03
2.00000000e-03
2.00000000e-03
2.00000000e-03
2.00000000e-03
2.00000000e-03
2.00000000e-03
2.00000000e-03
2.00000000e-03
2.00000000e-03
2.00000000e-03
2.00000000e-03
2.00000000e-03
2.00000000e-03
2.00000000e-03
2.00000000e-03
2.00000000e-03
2.00000000e-03
2.00000000e-03
2.00000000e-03
2.00000000e-03
2.00000000e-03
2.00000000e-03
2.00000000e-03
2.00000000e-03
2.00000000e-03
2.00000000e-03
2.00000000e-03
2.00000000e-03
2.00000000e-03
2.00000000e-03
2.00000000e-03
2.00000000e-03
2.00000000e-03
2.00000000e-03
2.00000000e-03
2.00000000e-03
2.00000000e-03
2.00000000e-03
2.00000000e-03
2.00000000e-03
2.00000000e-03
2.00000000e-03
2.00000000e-03
2.00000000e-03
2.00000000e-03
2.00000000e-03
2.00000000e-03
2.00000000e-03
2.00000000e-03
2.00000000e-03
2.00000000e-03
2.00000000e-03
2.00000000e-03
2.00000000e-03
2.00000000e-03
2.00000000e-03
2.00000000e-03
2.00000000e-03
2.00000000e-03
2.00000000e-03
2.00000000e-03
2.00000000e-03
2.00000000e-03
2.00000000e-03
2.00000000e-03
2.00000000e-03
2.00000000e-03
2.00000000e-03
2.00000000e-03
2.00000000e-03
2.00000000e-03
2.00000000e-03
2.00000000e-03
2.00000000e-03
2.00000000e-03
2.00000000e-03
2.00000000e-03
2.00000000e-03
2.00000000e-03
2.00000000e-03
2.00000000e-03
2.00000000e-03
2.00000000e-03
2.00000000e-03
2.00000000e-03
2.00000000e-03
2.00000000e-03
2.00000000e-03
2.00000000e-03
2.00000000e-03
2.00000000e-03
2.00000000e-03
2.00000000e-03
2.00000000e-03
2.00000000e-03
2.00000000e-03
2.00000000e-03
2.00000000e-03
2.00000000e-03
2.00000000e-03
2.00000000e-03
2.00000000e-03
2.00000000e-03
2.00000000e-03
2.00000000e-03
2.00000000e-03
2.00000000e-03
2.00000000e-03
2.00000000e-03
2.00000000e-03
2.00000000e-03
2.00000000e-03
2.00000000e-03
2.00000000e-03
2.00000000e-03
2.00000000e-03
2.00000000e-03
2.00000000e-03
2.00000000e-03
2.00000000e-03
2.00000000e-03
2.00000000e-03
2.00000000e-03
2.00000000e-03
2.00000000e-03
2.00000000e-03
2.00000000e-03
2.00000000e-03
2.00000000e-03
2.00000000e-03
2.00000000e-03
2.00000000e-03
2.00000000e-03
2.00000000e-03
2.00000000e-03
2.00000000e-03
2.00000000e-03
2.00000000e-03
2.00000000e-03
2.00000000e-03
2.00000000e-03
2.00000000e-03
2.00000000e-03
2.00000000e-03
2.00000000e-03
2.00000000e-03
2.00000000e-03
2.00000000e-03
2.00000000e-03
2.00000000e-03
2.00000000e-03
2.00000000e-03
2.00000000e-03
2.00000000e-03
2.00000000e-03
2.00000000e-03
2.00000000e-03
2.00000000e-03
2.00000000e-03
2.00000000e-03
2.00000000e-03
2.00000000e-03
2.00000000e-03
2.00000000e-03
2.00000000e-03
2.00000000e-03
2.00000000e-03
2.00000000e-03
2.00000000e-03
2.00000000e-03
2.00000000e-03
2.00000000e-03
2.00000000e-03
2.00000000e-03
2.00000000e-03
2.00000000e-03
2.00000000e-03
2.00000000e-03
2.00000000e-03
2.00000000e-03
2.00000000e-03
2.00000000e-03
2.00000000e-03
2.00000000e-03
2.00000000e-03
2.00000000e-03
2.00000000e-03
2.00000000e-03
2.00000000e-03
2.00000000e-03
2.00000000e-03
2.00000000e-03
2.00000000e-03
2.00000000e-03
2.00000000e-03
2.00000000e-03
2.00000000e-03
2.00000000e-03
2.00000000e-03
2.00000000e-03
2.00000000e-03
2.00000000e-03
2.00000000e-03
2.00000000e-03
2.00000000e-03
2.00000000e-03
2.00000000e-03
2.00000000e-03
2.00000000e-03
2.00000000e-03
2.00000000e-03
2.00000000e-03
2.00000000e-03
2.00000000e-03
2.00000000e-03
2.00000000e-03
2.00000000e-03
2.00000000e-03
2.00000000e-03
2.00000000e-03
2.00000000e-03
2.00000000e-03
2.00000000e-03
2.00000000e-03
2.00000000e-03
2.00000000e-03
2.00000000e-03
2.00000000e-03
2.00000000e-03
2.00000000e-03
2.00000000e-03
2.00000000e-03
2.00000000e-03
2.00000000e-03
2.00000000e-03
2.00000000e-03
2.00000000e-03
