# vtk DataFile Version 2.0
Particle data
ASCII
DATASET POLYDATA
POINTS 469 double
9.12141699e-03	-6.60818854e-03	3.91715839e-03
2.57104591e-02	-8.00976152e-04	1.50544486e-02
3.30962444e-02	-2.08501377e-03	1.92021275e-03
2.67313294e-02	-2.97048855e-02	1.79050635e-02
3.29479954e-02	-9.28081987e-04	5.93851641e-03
-1.73720888e-02	-3.60340269e-02	2.04085476e-03
1.78646075e-02	4.10211553e-03	1.01525052e-02
8.44549527e-03	-2.77440714e-02	1.73256820e-02
3.13291978e-02	1.10800653e-02	1.81959307e-02
3.24649251e-02	-1.67857348e-02	1.04637069e-02
-1.37648564e-02	-3.78291662e-02	1.74127998e-02
1.54169420e-02	-7.55007035e-03	1.64112886e-02
3.47672191e-02	1.77992342e-02	1.45976012e-02
3.98693423e-02	1.79414766e-03	1.91957556e-03
-1.39893275e-02	-3.59798311e-02	1.26044593e-02
2.39788781e-02	-2.39347795e-02	1.24271608e-02
1.99756664e-02	-3.10624187e-02	1.39156425e-02
2.54862537e-02	8.27674131e-04	2.04536069e-03
9.37552182e-03	-3.09330301e-02	1.37756365e-02
-7.54048317e-03	-3.59961862e-02	1.01702940e-02
-2.14089323e-03	-3.63485645e-02	2.00793964e-03
2.73140850e-02	-3.05687557e-03	1.80015011e-02
2.71393450e-02	-2.64398742e-02	1.09500959e-02
1.49423439e-02	-1.22251456e-02	2.40079812e-03
2.72976224e-02	-1.12990620e-02	1.96867576e-03
3.23983592e-02	-2.01380960e-02	1.44041998e-02
4.07840056e-03	-3.96767713e-02	1.46525600e-02
2.68606290e-02	8.77991888e-03	9.87731279e-03
1.79945762e-02	-3.57151227e-02	1.68600011e-02
2.16077613e-02	-2.23967247e-04	1.37492858e-02
3.14911032e-02	1.17178761e-02	9.05410287e-03
1.53334258e-02	7.53518757e-03	2.01938511e-03
2.98971366e-02	5.82360559e-03	9.07047539e-03
2.51377963e-02	-1.06632138e-02	1.81271899e-02
2.32803866e-02	-1.79490412e-02	9.49719898e-03
3.98700035e-02	9.18765051e-04	1.33252140e-02
-3.59183863e-03	-2.46720523e-02	5.13452701e-03
1.03284291e-02	-3.43041412e-02	8.81963331e-03
2.33822889e-02	1.89467741e-03	1.06996437e-02
2.21152471e-02	-1.71619142e-02	2.20570225e-03
5.52575467e-03	-3.55340666e-02	8.02317080e-03
3.30745264e-02	2.04056550e-02	1.09412253e-02
3.10744615e-02	-1.01180302e-02	2.04220206e-03
2.10478295e-02	5.42581475e-03	6.10820721e-03
2.92336320e-02	-2.17627565e-02	1.25480501e-02
-2.55303966e-03	-3.46772033e-02	1.03045360e-02
5.02319415e-03	-2.21276214e-02	1.63917290e-02
1.42079961e-02	-3.06911003e-03	1.23459402e-02
8.25102558e-03	-1.98503167e-02	1.14324219e-02
2.31804874e-02	1.47442776e-02	1.81447148e-02
3.08621162e-02	7.21247042e-03	1.35286986e-02
2.13820939e-02	-5.50942861e-03	1.98283552e-03
2.74228634e-02	-2.37008839e-02	1.51999841e-02
1.00383097e-02	-2.61721049e-02	7.33688971e-03
3.05031955e-02	-2.42121003e-02	4.94804457e-03
1.51264970e-02	-3.72241757e-02	1.43086917e-02
3.05720930e-02	-1.97514779e-02	9.16579680e-03
-3.00037263e-03	-3.27648744e-02	1.58976205e-02
3.57318096e-02	-1.75875527e-02	1.39911220e-02
3.34316543e-02	-1.50053400e-02	1.80620247e-02
3.98612355e-02	-2.38349496e-03	1.74388019e-02
1.62212392e-02	-2.00818302e-02	1.20050326e-02
4.26201332e-03	-1.46469301e-02	1.81061129e-02
1.83816040e-02	-3.12127052e-02	1.01133406e-02
3.96155336e-02	5.91767990e-03	3.68177123e-03
-6.62132391e-03	-3.96135276e-02	6.60259231e-03
3.37938068e-02	-1.03993205e-02	5.33174501e-03
3.12981535e-02	3.62196448e-03	1.57398896e-02
3.46022352e-02	-1.99935864e-02	1.09656789e-02
3.54010364e-02	-5.11943065e-03	1.09363353e-02
5.70098798e-03	-3.93630127e-02	6.42066779e-03
2.95101597e-02	1.11643974e-02	3.11822737e-03
-8.95017937e-03	-2.98387612e-02	1.47972663e-02
2.01158152e-03	-3.67956313e-02	9.52244187e-03
2.34279613e-02	1.05920318e-02	6.05389463e-03
3.08102782e-03	-3.77836387e-02	1.80788793e-02
8.35897328e-03	-3.28609157e-02	5.49199175e-03
2.48840549e-02	1.92706120e-03	7.24212466e-03
3.00949646e-02	3.99667013e-04	2.04322615e-03
8.89848410e-03	-2.36408229e-02	1.71720687e-02
-4.08523869e-04	-3.15256592e-02	6.09132753e-03
2.30458440e-02	-1.47337065e-02	6.94919957e-03
3.38225841e-02	-1.27664922e-02	1.96995183e-03
3.74900243e-02	-5.74996445e-03	1.81284675e-02
2.52534874e-02	-1.42757895e-02	2.00422495e-03
-6.25024703e-03	-3.88932301e-02	1.98618401e-03
1.54616325e-02	1.44133633e-03	7.17920797e-03
2.35403484e-02	-2.79629089e-02	1.31998549e-02
3.02195295e-02	-8.37260601e-03	5.59017891e-03
1.55237493e-02	-2.74150644e-02	6.70741746e-03
-7.06148498e-05	-3.57678733e-02	6.06081760e-03
2.39150078e-02	-3.63506506e-03	3.80304224e-03
2.85239968e-02	-3.54087849e-03	8.49596954e-03
6.96541164e-03	-3.88218687e-02	1.01835800e-02
3.44342977e-02	-2.39226764e-03	1.80596998e-02
2.61056599e-02	9.92305449e-03	1.94102944e-03
2.26306166e-02	-2.87440140e-02	8.75847372e-03
2.64981381e-02	-1.85895892e-02	1.80990492e-02
1.77227492e-02	9.19099724e-04	1.33942677e-02
2.00109989e-02	-9.10995549e-03	1.08054737e-02
1.90338880e-02	-2.44420733e-02	2.01910699e-03
1.94889537e-02	-2.39509224e-02	1.10440270e-02
1.59381109e-02	-3.08466345e-02	1.32958068e-02
3.02660294e-02	6.42848177e-03	1.81559540e-02
2.80923823e-02	-2.29456271e-02	9.04771429e-03
1.25953022e-02	-9.08379516e-03	2.00624998e-03
2.29830048e-02	-2.47457777e-02	2.11889770e-03
1.02055427e-02	-1.81160195e-02	5.51643092e-03
3.55953913e-02	-8.39606932e-03	1.97379586e-03
2.90988460e-02	-7.36831971e-03	9.24977166e-03
1.89375723e-02	-2.77380153e-02	4.45893443e-03
-9.93256518e-04	-3.73977601e-02	1.80870370e-02
-3.25807060e-03	-3.01864109e-02	1.34123769e-02
2.23342944e-02	-2.97609705e-02	2.10341920e-03
3.27394294e-02	-8.30142461e-03	1.80704367e-02
3.25016836e-02	-1.66459872e-02	2.00661550e-03
1.12699442e-02	-3.87258955e-02	1.00144467e-02
2.33925931e-02	-2.18953323e-02	9.28113713e-03
3.48949290e-02	5.82464972e-03	1.39430861e-02
3.43500391e-02	2.12977737e-02	5.95820746e-03
-3.61333013e-03	-2.81639812e-02	2.05357776e-03
8.72445714e-03	-1.03856297e-02	1.60155766e-02
-8.52446667e-03	-3.93387567e-02	1.64243441e-02
3.48591530e-02	-4.88212477e-03	1.49214536e-02
3.29854596e-02	1.64520654e-02	1.81176131e-02
-5.98351150e-03	-3.53973544e-02	3.96830925e-03
-1.37439817e-02	-3.31628726e-02	5.81329157e-03
3.18990633e-02	2.96838834e-03	1.16635013e-02
1.42582852e-02	-3.38532158e-02	8.31122833e-03
1.23427764e-02	-3.14355703e-02	1.99001273e-03
8.23817472e-03	-3.67920620e-02	5.53537562e-03
3.51629428e-02	1.62657846e-02	4.74123583e-03
1.07499007e-05	-3.14759726e-02	1.81262004e-02
3.84139588e-02	1.03328942e-02	1.34764418e-02
1.73753059e-02	-5.00927979e-03	1.33183265e-02
3.88737184e-02	-8.36767541e-03	4.89937153e-03
3.24825553e-02	4.88404653e-03	5.82439658e-03
-8.13600695e-03	-2.91689559e-02	7.08796038e-03
2.49664775e-02	-2.07427461e-02	1.41366238e-02
1.03168400e-02	-3.49151483e-02	1.72549825e-02
3.43739387e-02	-1.08612334e-02	1.51614126e-02
-5.77703417e-03	-3.19965257e-02	1.99559476e-03
-6.77299328e-03	-3.40853323e-02	1.36097897e-02
1.20072503e-02	-3.80501162e-02	6.09671482e-03
1.19767277e-02	-6.78649760e-03	9.28847282e-03
-1.01541984e-02	-3.87212774e-02	3.15012778e-03
3.09694406e-02	-2.52800984e-02	1.07735594e-02
-1.25887348e-02	-3.48082995e-02	2.04829899e-03
1.40610862e-02	-2.13321092e-02	7.59780586e-03
2.41147246e-02	-1.40789146e-02	1.81207202e-02
1.21096509e-03	-2.13247193e-02	1.63430893e-02
2.15187850e-02	-2.05277551e-02	1.79823372e-02
-2.29649859e-02	-3.26386213e-02	9.44098722e-03
-1.03652234e-03	-3.99069236e-02	1.50113368e-02
2.39455422e-02	-2.62184801e-03	1.14036159e-02
8.63748964e-03	-2.42337744e-02	1.02880351e-02
-2.23210234e-02	-2.89469467e-02	6.86893423e-03
2.80772055e-02	-7.17381683e-03	2.02934130e-03
3.91064802e-02	9.06864427e-03	1.93201498e-03
1.11105514e-03	-2.76051914e-02	2.22208561e-03
3.20083258e-02	1.71383556e-02	7.52218765e-03
-1.75064528e-02	-3.27036086e-02	4.62142047e-03
3.74529753e-02	-1.37585532e-02	1.40058550e-02
1.37550844e-02	-3.03949479e-02	1.80899084e-02
2.79742600e-02	-1.74619126e-02	2.02336223e-03
2.34636254e-02	-7.12481826e-03	1.49463017e-02
2.14021144e-02	-6.34093843e-04	4.14229502e-03
3.91893478e-03	-1.68906705e-02	1.01724067e-02
2.28429041e-02	-3.03906048e-02	1.80761773e-02
2.03977686e-02	-2.51225627e-02	7.30401178e-03
-1.67641499e-02	-3.62357275e-02	8.57232469e-03
3.70967268e-02	-1.53041138e-02	2.57039623e-03
4.55772014e-03	-2.61956855e-02	1.24271677e-02
1.27266873e-02	1.51955211e-03	1.40865340e-02
2.52958955e-02	5.45090614e-03	5.96359330e-03
3.68772796e-03	-1.43489936e-02	4.70419145e-03
2.82552128e-02	1.64892760e-02	1.26152134e-02
3.48053591e-02	9.03427983e-03	1.81710739e-02
1.28916625e-02	6.03006342e-04	1.80287886e-02
1.32759089e-02	-2.45678441e-02	5.62979866e-03
2.40872981e-02	-3.17460956e-02	1.44971924e-02
1.41958790e-02	-1.79946556e-02	6.06518013e-03
2.22580283e-02	-2.50791736e-03	1.65104268e-02
2.53568773e-02	-3.08216577e-02	6.81404789e-03
2.12292180e-02	-1.02208086e-02	1.57342226e-02
6.13664735e-04	-2.06342538e-02	4.02402776e-03
8.79787722e-03	-5.38239082e-03	8.53025841e-03
3.52516968e-02	1.64586627e-02	1.07279926e-02
-4.83530578e-03	-2.97264095e-02	1.75071379e-02
2.02386182e-02	1.31479754e-03	8.25095907e-03
2.91196849e-02	-2.17105639e-02	1.79569586e-02
3.21315976e-02	-1.55509723e-02	1.44167598e-02
3.18017912e-02	-2.40233782e-02	1.43209730e-02
1.88664426e-02	-3.50009725e-02	7.73622435e-03
9.21436241e-03	-2.16552385e-02	7.26459005e-03
1.36094959e-02	-2.63216378e-02	1.81078531e-02
2.94272382e-02	-1.37474840e-02	1.07889757e-02
2.35866265e-02	-3.84756042e-03	8.27768128e-03
1.73190791e-02	-6.10583305e-03	9.88384208e-03
3.53571844e-02	-1.84234945e-02	1.78515368e-02
1.45602840e-03	-3.95697957e-02	1.17857018e-02
-3.99599816e-03	-3.64112886e-02	6.99316472e-03
1.52790621e-02	-2.76770622e-02	1.06869470e-02
3.64490451e-02	1.37618599e-02	1.82290522e-02
2.88884090e-02	-2.73785639e-02	1.42985737e-02
-1.78046542e-03	-3.05371927e-02	9.78876157e-03
1.26778348e-02	-1.12775909e-02	1.38837978e-02
6.44884852e-03	-3.59465278e-02	1.75153142e-02
3.59486234e-02	7.39226056e-03	4.47309055e-03
5.38850686e-03	-3.15203455e-02	1.49502132e-02
3.61317744e-02	-8.15098109e-03	1.30504552e-02
2.77361260e-02	-2.29507442e-02	2.04816068e-03
3.78055950e-02	-1.32229299e-02	5.93191890e-03
2.07372292e-02	-2.29898417e-02	1.47107380e-02
3.84044559e-02	1.05594963e-02	9.48038791e-03
[...]
POINT_DATA 469
SCALARS Radius double 1
LOOKUP_TABLE default
2.00000000e-03
2.00000000e-03
2.00000000e-03
2.00000000e-03
2.00000000e-03
2.00000000e-03
2.00000000e-03
2.00000000e-03
2.00000000e-03
2.00000000e-03
2.00000000e-03
2.00000000e-03
2.00000000e-03
2.00000000e-03
2.00000000e-03
2.00000000e-03
2.00000000e-03
2.00000000e-03
2.00000000e-03
2.00000000e-03
2.00000000e-03
2.00000000e-03
2.00000000e-03
2.00000000e-03
2.00000000e-03
2.00000000e-03
2.00000000e-03
2.00000000e-03
2.00000000e-03
2.00000000e-03
2.00000000e-03
2.00000000e-03
2.00000000e-03
2.00000000e-03
2.00000000e-03
2.00000000e-03
2.00000000e-03
2.00000000e-03
2.00000000e-03
2.00000000e-03
2.00000000e-03
2.00000000e-03
2.00000000e-03
2.00000000e-03
2.00000000e-03
2.00000000e-03
2.00000000e-03
2.00000000e-03
2.00000000e-03
2.00000000e-03
2.00000000e-03
2.00000000e-03
2.00000000e-03
2.00000000e-03
2.00000000e-03
2.00000000e-03
2.00000000e-03
2.00000000e-03
2.00000000e-03
2.00000000e-03
2.00000000e-03
2.00000000e-03
2.00000000e-03
2.00000000e-03
2.00000000e-03
2.00000000e-03
2.00000000e-03
2.00000000e-03
2.00000000e-03
2.00000000e-03
2.00000000e-03
2.00000000e-03
2.00000000e-03
2.00000000e-03
2.00000000e-03
2.00000000e-03
2.00000000e-03
2.00000000e-03
2.00000000e-03
2.00000000e-03
2.00000000e-03
2.00000000e-03
2.00000000e-03
2.00000000e-03
2.00000000e-03
2.00000000e-03
2.00000000e-03
2.00000000e-03
2.00000000e-03
2.00000000e-03
2.00000000e-03
2.00000000e-03
2.00000000e-03
2.00000000e-03
2.00000000e-03
2.00000000e-03
2.00000000e-03
2.00000000e-03
2.00000000e-03
2.00000000e-03
2.00000000e-03
2.00000000e-03
2.00000000e-03
2.00000000e-03
2.00000000e-03
2.00000000e-03
2.00000000e-03
2.00000000e-03
2.00000000e-03
2.00000000e-03
2.00000000e-03
2.00000000e-03
2.00000000e-03
2.00000000e-03
2.00000000e-03
2.00000000e-03
2.00000000e-03
2.00000000e-03
2.00000000e-03
2.00000000e-03
2.00000000e-03
2.00000000e-03
2.00000000e-03
2.00000000e-03
2.00000000e-03
2.00000000e-03
2.00000000e-03
2.00000000e-03
2.00000000e-03
2.00000000e-03
2.00000000e-03
2.00000000e-03
2.00000000e-03
2.00000000e-03
2.00000000e-03
2.00000000e-03
2.00000000e-03
2.00000000e-03
2.00000000e-03
2.00000000e-03
2.00000000e-03
2.00000000e-03
2.00000000e-03
2.00000000e-03
2.00000000e-03
2.00000000e-03
2.00000000e-03
2.00000000e-03
2.00000000e-03
2.00000000e-03
2.00000000e-03
2.00000000e-03
2.00000000e-03
2.00000000e-03
2.00000000e-03
2.00000000e-03
2.00000000e-03
2.00000000e-03
2.00000000e-03
2.00000000e-03
2.00000000e-03
2.00000000e-03
2.00000000e-03
2.00000000e-03
2.00000000e-03
2.00000000e-03
2.00000000e-03
2.00000000e-03
2.00000000e-03
2.00000000e-03
2.00000000e-03
2.00000000e-03
2.00000000e-03
2.00000000e-03
2.00000000e-03
2.00000000e-03
2.00000000e-03
2.00000000e-03
2.00000000e-03
2.00000000e-03
2.00000000e-03
2.00000000e-03
2.00000000e-03
2.00000000e-03
2.00000000e-03
2.00000000e-03
2.00000000e-03
2.00000000e-03
2.00000000e-03
2.00000000e-03
2.00000000e-03
2.00000000e-03
2.00000000e-03
2.00000000e-03
2.00000000e-03
2.00000000e-03
2.00000000e-03
2.00000000e-03
2.00000000e-03
2.00000000e-03
2.00000000e-03
2.00000000e-03
2.00000000e-03
2.00000000e-03
2.00000000e-03
2.00000000e-03
2.00000000e-03
2.00000000e-03
2.00000000e-03
2.00000000e-03
2.00000000e-03
2.00000000e-03
2.00000000e-03
2.00000000e-03
2.00000000e-03
2.00000000e-03
2.00000000e-03
2.00000000e-03
2.00000000e-03
2.00000000e-03
2.00000000e-03
2.00000000e-03
2.00000000e-03
2.00000000e-03
2.00000000e-03
2.00000000e-03
2.00000000e-03
2.00000000e-03
2.00000000e-03
2.00000000e-03
2.00000000e-03
2.00000000e-03
2.00000000e-03
2.00000000e-03
2.00000000e-03
2.00000000e-03
2.00000000e-03
2.00000000e-03
2.00000000e-03
2.00000000e-03
2.00000000e-03
2.00000000e-03
2.00000000e-03
2.00000000e-03
2.00000000e-03
2.00000000e-03
2.00000000e-03
2.00000000e-03
2.00000000e-03
2.00000000e-03
2.00000000e-03
2.00000000e-03
2.00000000e-03
2.00000000e-03
2.00000000e-03
2.00000000e-03
2.00000000e-03
2.00000000e-03
2.00000000e-03
2.00000000e-03
2.00000000e-03
2.00000000e-03
2.00000000e-03
2.00000000e-03
2.00000000e-03
2.00000000e-03
2.00000000e-03
2.00000000e-03
2.00000000e-03
2.00000000e-03
2.00000000e-03
2.00000000e-03
2.00000000e-03
2.00000000e-03
2.00000000e-03
2.00000000e-03
2.00000000e-03
2.00000000e-03
2.00000000e-03
2.00000000e-03
2.00000000e-03
2.00000000e-03
2.00000000e-03
2.00000000e-03
2.00000000e-03
2.00000000e-03
2.00000000e-03
2.00000000e-03
2.00000000e-03
2.00000000e-03
2.00000000e-03
2.00000000e-03
2.00000000e-03
2.00000000e-03
2.00000000e-03
2.00000000e-03
2.00000000e-03
2.00000000e-03
2.00000000e-03
2.00000000e-03
2.00000000e-03
2.00000000e-03
2.00000000e-03
2.00000000e-03
2.00000000e-03
2.00000000e-03
2.00000000e-03
2.00000000e-03
2.00000000e-03
2.00000000e-03
2.00000000e-03
2.00000000e-03
2.00000000e-03
2.00000000e-03
2.00000000e-03
2.00000000e-03
2.00000000e-03
2.00000000e-03
2.00000000e-03
2.00000000e-03
2.00000000e-03
2.00000000e-03
2.00000000e-03
2.00000000e-03
2.00000000e-03
2.00000000e-03
2.00000000e-03
2.00000000e-03
2.00000000e-03
2.00000000e-03
2.00000000e-03
2.00000000e-03
2.00000000e-03
2.00000000e-03
2.00000000e-03
2.00000000e-03
2.00000000e-03
2.00000000e-03
2.00000000e-03
2.00000000e-03
2.00000000e-03
2.00000000e-03
2.00000000e-03
2.00000000e-03
2.00000000e-03
2.00000000e-03
2.00000000e-03
2.00000000e-03
2.00000000e-03
2.00000000e-03
2.00000000e-03
2.00000000e-03
2.00000000e-03
2.00000000e-03
2.00000000e-03
2.00000000e-03
2.00000000e-03
2.00000000e-03
2.00000000e-03
2.00000000e-03
2.00000000e-03
2.00000000e-03
2.00000000e-03
2.00000000e-03
2.00000000e-03
2.00000000e-03
2.00000000e-03
2.00000000e-03
2.00000000e-03
2.00000000e-03
2.00000000e-03
2.00000000e-03
2.00000000e-03
2.00000000e-03
2.00000000e-03
2.00000000e-03
2.00000000e-03
2.00000000e-03
2.00000000e-03
2.00000000e-03
2.00000000e-03
2.00000000e-03
2.00000000e-03
2.00000000e-03
2.00000000e-03
2.00000000e-03
2.00000000e-03
2.00000000e-03
2.00000000e-03
2.00000000e-03
2.00000000e-03
2.00000000e-03
2.00000000e-03
2.00000000e-03
2.00000000e-03
2.00000000e-03
2.00000000e-03
2.00000000e-03
2.00000000e-03
2.00000000e-03
2.00000000e-03
2.00000000e-03
2.00000000e-03
2.00000000e-03
2.00000000e-03
2.00000000e-03
2.00000000e-03
2.00000000e-03
2.00000000e-03
2.00000000e-03
2.00000000e-03
2.00000000e-03
2.00000000e-03
2.00000000e-03
2.00000000e-03
2.00000000e-03
2.00000000e-03
2.00000000e-03
2.00000000e-03
2.00000000e-03
2.00000000e-03
2.00000000e-03
2.00000000e-03
2.00000000e-03
2.00000000e-03
2.00000000e-03
2.00000000e-03
2.00000000e-03
2.00000000e-03
2.00000000e-03
2.00000000e-03
2.00000000e-03
2.00000000e-03
2.00000000e-03
2.00000000e-03
2.00000000e-03
2.00000000e-03
2.00000000e-03
2.00000000e-03
2.00000000e-03
2.00000000e-03
2.00000000e-03
2.00000000e-03
2.00000000e-03
2.00000000e-03
2.00000000e-03
2.00000000e-03
2.00000000e-03
2.00000000e-03
2.00000000e-03
2.00000000e-03
2.00000000e-03
2.00000000e-03
2.00000000e-03
2.00000000e-03
2.00000000e-03
2.00000000e-03
2.00000000e-03
2.00000000e-03
2.00000000e-03
2.00000000e-03
2.00000000e-03
2.00000000e-03
2.00000000e-03
2.00000000e-03
2.00000000e-03
2.00000000e-03
2.00000000e-03
2.00000000e-03
