# vtk DataFile Version 2.0
Particle data
ASCII
DATASET POLYDATA
POINTS 469 double
-3.56445042e-04	-3.65990564e-02	1.53361677e-02
5.47764558e-03	-2.61245443e-02	1.29961832e-02
5.48303855e-03	-1.49452223e-02	7.23077054e-03
2.87408165e-02	-1.66645561e-02	9.88261124e-03
1.00063180e-02	-2.92490955e-02	2.37128982e-03
-6.27711640e-03	-3.13141308e-02	2.51218118e-03
-1.05791857e-02	-3.60797233e-02	1.75714284e-02
2.75748236e-02	-1.14194460e-02	1.77843874e-02
2.34736850e-02	1.43157012e-02	1.79483856e-02
3.63937997e-02	-8.81236915e-03	1.79095593e-02
4.19282961e-03	-3.98975292e-02	7.41955042e-03
1.69466719e-04	-2.67166107e-02	1.85256946e-02
3.33353188e-02	1.51435805e-02	1.08662623e-02
9.15497667e-03	-2.20471560e-02	6.04672046e-03
7.52068334e-03	-3.51228701e-02	1.40569023e-02
3.77669422e-02	-1.37659316e-02	1.10202499e-02
2.42287708e-02	-1.27219732e-02	6.44307538e-03
1.02280889e-02	-8.03235770e-03	2.37377957e-03
2.55574301e-02	-1.19634141e-02	1.45512245e-02
-1.86266950e-03	-3.95434820e-02	5.20069693e-03
8.07833523e-03	-3.93828104e-02	2.24494221e-03
2.74310560e-02	1.61000100e-02	1.73098583e-02
3.42357083e-02	-2.10746275e-02	2.03450673e-03
5.79079377e-03	-1.88285822e-02	4.40191555e-03
1.01223635e-02	-1.35138981e-02	2.54837251e-03
3.41094175e-02	-8.80590563e-03	8.91720189e-03
1.81689113e-02	-3.45705800e-02	1.50371652e-02
1.00015308e-02	-1.09751035e-02	1.40992192e-02
2.74054477e-02	-2.44810141e-02	1.14344329e-02
2.54305786e-02	-7.16161502e-03	1.50971485e-02
3.99689153e-03	-2.42698214e-02	9.31754760e-03
1.04638104e-02	-6.57566034e-03	4.64239134e-03
-7.28793244e-05	-2.47914083e-02	7.06839274e-03
2.25671598e-02	7.61344162e-03	1.80620815e-02
3.93720115e-02	1.27450366e-03	1.10261080e-02
1.20895168e-02	-1.35370481e-02	1.13377550e-02
-7.46191362e-04	-3.75508846e-02	8.77227129e-03
2.50729292e-02	-3.15042575e-02	1.02294309e-02
-6.65759533e-04	-2.88826194e-02	1.21868915e-02
3.95365249e-03	-3.18709376e-02	4.03506761e-03
2.55653194e-02	-2.70185838e-02	1.15838153e-02
3.21246991e-03	-1.74128851e-02	1.58621527e-02
3.95006911e-02	1.98180833e-03	2.24939738e-03
8.06082179e-04	-3.81404981e-02	1.79235460e-02
2.86808252e-02	1.41645862e-03	1.44425445e-02
9.66333370e-03	-3.54260350e-02	1.07270401e-02
1.18492458e-02	-2.33955195e-02	1.00909290e-02
1.55840007e-02	-3.53392082e-02	1.30078872e-02
2.17187914e-02	-1.81484724e-02	1.02356548e-02
5.05778695e-03	-3.86356010e-02	1.79738783e-02
2.71123307e-02	-1.04195378e-02	1.64171366e-03
1.61801073e-02	-2.06203318e-02	8.53372847e-03
2.16414304e-02	-3.42156430e-02	1.26574357e-02
2.44516504e-02	-1.16221917e-02	2.89916002e-03
3.31321884e-02	-1.17546891e-02	1.15996287e-02
2.86030268e-02	-1.90827735e-02	1.52187044e-02
3.69967760e-02	-1.12947817e-02	8.65818979e-03
1.34073998e-02	-3.04194456e-02	1.80725016e-02
3.49075867e-02	5.94167732e-03	1.47850562e-02
3.20885852e-02	7.89027044e-04	1.45185249e-02
3.54964058e-02	8.82508166e-03	1.78507117e-02
2.35665686e-02	1.60487530e-03	9.59928316e-03
1.80958542e-02	-1.60021248e-02	1.81873700e-02
3.19281311e-02	-1.84517516e-02	9.02558096e-03
1.81679475e-02	3.73618807e-03	5.21082952e-03
8.84305716e-03	-3.62732890e-02	5.31345797e-03
4.01784210e-02	-2.28929467e-03	3.62614090e-03
4.93044439e-03	-2.28231047e-02	1.52911604e-02
3.45184899e-02	-6.30632727e-03	6.29161779e-03
3.65925388e-02	1.42971162e-02	9.24706206e-03
2.58095867e-02	-2.39377965e-02	7.15501088e-03
2.91376953e-02	1.79286115e-02	2.36230362e-03
1.21748730e-03	-3.92615210e-02	1.76252303e-02
4.41773393e-03	-3.57105134e-02	1.33504766e-02
-4.21206289e-03	-2.29969188e-02	8.97888668e-03
2.49754701e-02	-2.36350822e-02	1.73227962e-02
2.14320329e-02	-1.38436058e-02	5.49294632e-03
-5.25388081e-03	-3.43792692e-02	6.12592049e-03
3.58739184e-02	1.35068451e-02	1.82375732e-02
3.67007426e-02	-1.64691540e-02	1.83230267e-02
1.66524177e-02	-2.96883530e-02	8.97869105e-03
2.37677425e-02	-1.38410052e-03	6.46743845e-03
2.18420195e-02	-2.09689761e-03	2.01520710e-03
2.59085055e-02	2.02054537e-03	1.80740071e-02
3.29450546e-02	5.00174667e-03	1.92842789e-03
6.82393906e-03	-4.24753155e-02	2.96137134e-03
7.02152430e-03	-2.72799760e-02	1.76055058e-02
3.58778177e-02	-1.75873037e-02	1.09699517e-02
3.28079604e-02	1.07035380e-02	6.82905806e-03
3.27024830e-02	-3.76423605e-03	4.58175229e-03
1.40221661e-02	-3.72896649e-02	9.83251192e-03
6.72504528e-03	-3.29795096e-02	5.55200810e-03
2.36397099e-02	1.20898595e-02	6.99592501e-03
1.68238496e-02	-3.62332062e-02	2.33229158e-03
-8.93284930e-04	-2.58913421e-02	1.02044515e-02
1.93721195e-02	6.57998930e-03	8.61414332e-03
3.51426040e-02	-1.90927405e-02	6.63624642e-03
3.52661662e-02	-5.31301567e-03	1.23399149e-02
2.11053336e-02	1.51083318e-03	1.89966673e-02
-1.15075449e-03	-2.97551280e-02	8.88609335e-03
3.12081615e-02	-7.33061316e-03	7.34231054e-03
3.22539815e-02	-4.48469506e-03	1.07658764e-02
2.68695169e-02	-2.54976850e-02	1.58954852e-02
3.41889997e-02	1.72941507e-02	1.73943793e-02
3.21328923e-02	-3.04207818e-03	8.10686819e-03
8.29064226e-03	-4.16539056e-02	1.04578376e-02
1.95970175e-02	-1.05203840e-02	8.33251542e-03
2.64408632e-02	-7.80457577e-03	4.24336965e-03
3.56665067e-02	-3.40720875e-03	1.84338210e-03
4.67277218e-03	-2.89198294e-02	8.20739350e-03
3.64699861e-02	-9.57022661e-03	2.42637457e-03
1.12532727e-02	-3.67152998e-02	1.82978392e-02
1.88767495e-02	-2.64401084e-02	1.67659040e-02
2.99169616e-02	-1.37076820e-02	1.86617432e-03
3.20663568e-02	7.89535377e-03	1.43872899e-02
3.10935497e-02	-1.39581583e-03	1.95731328e-03
1.30129054e-02	-3.94932278e-02	1.39333763e-02
3.77546755e-02	-1.19475317e-02	4.99019166e-03
7.51252404e-03	-2.47738062e-02	5.64951003e-03
-2.14625355e-03	-2.13572771e-02	5.16527000e-03
1.25787735e-02	-3.21349183e-02	1.97685598e-03
2.44584589e-02	-5.02469737e-03	1.40696479e-02
-6.08121986e-03	-4.07007503e-02	1.60573367e-02
3.76786282e-02	6.17230662e-03	5.65465711e-03
3.29664083e-02	2.15621920e-02	1.81830347e-02
6.97670870e-03	-4.18187140e-02	1.45285027e-02
-8.97310579e-03	-3.20721955e-02	5.42991044e-03
-5.48273383e-03	-3.37663676e-02	1.20481554e-02
2.86373405e-02	-2.00868884e-02	1.07377183e-02
1.96814613e-02	-2.48014354e-02	1.82709269e-03
2.77413980e-02	-1.69299930e-02	2.51833246e-03
3.29002060e-02	1.72210752e-02	4.59093092e-03
8.41769638e-03	-3.28113334e-02	1.79871323e-02
-7.39992474e-04	-1.99198677e-02	1.03240154e-02
1.47878818e-02	-1.65197044e-02	4.07601922e-03
3.92075574e-02	9.33505291e-03	1.33354537e-02
3.91257167e-03	-2.10995471e-02	6.64104879e-03
-1.05991244e-02	-3.53405247e-02	1.03138665e-03
2.51335477e-02	-6.53572990e-03	1.06929915e-02
2.53814311e-02	-1.49648886e-02	1.52289845e-02
3.15276764e-02	3.48823994e-03	1.69741747e-02
4.56552454e-03	-4.11639741e-02	9.83938709e-03
1.59172690e-02	-2.30873767e-02	1.35004949e-02
2.12240390e-02	-3.39070463e-02	2.22516126e-03
-4.59288973e-03	-3.37889607e-02	4.87453419e-03
3.27122583e-03	-4.02390168e-02	2.65914186e-03
3.73625827e-02	-1.59245367e-02	2.09878675e-03
2.27280489e-03	-3.17873554e-02	2.05786811e-03
1.66165459e-02	-1.63823350e-02	1.04995542e-02
3.27796991e-02	-6.74240080e-03	1.52361789e-02
1.49529880e-02	-2.73180553e-02	1.83852055e-02
2.27326496e-02	-4.36110932e-03	9.79821232e-03
-5.64595097e-03	-3.36851858e-02	8.70889642e-03
1.41661017e-02	-3.04850828e-02	1.08129973e-02
2.53512124e-02	-1.52781450e-02	8.44183824e-03
3.10603150e-02	-1.56754809e-02	1.43908985e-02
-5.29522501e-03	-2.74133058e-02	3.79683002e-03
1.29564370e-02	-2.30320470e-02	5.30064151e-03
3.53084905e-02	1.45735605e-02	1.53679751e-02
8.86721189e-04	-2.96435000e-02	5.21134601e-03
1.81357222e-02	2.91631987e-03	1.06670044e-02
-4.37508260e-03	-3.72868219e-02	1.56867447e-03
3.67979317e-02	1.07282381e-02	9.13952623e-03
2.84294586e-02	-2.32191551e-02	1.82341080e-02
2.02110857e-02	-6.61657433e-03	2.30149939e-03
3.71336131e-03	-2.62736578e-02	1.32370314e-02
2.49994695e-02	-1.61401551e-02	5.24813679e-03
-1.25477015e-02	-4.03190990e-02	7.64463442e-03
3.20538063e-02	-1.84403048e-02	1.79787821e-02
3.65287345e-02	-1.70131324e-02	6.69435028e-03
-1.56993388e-02	-3.27644796e-02	1.57529945e-02
3.47846462e-02	-4.07590094e-03	9.53336849e-03
2.11328414e-02	-3.00222621e-02	1.73759997e-02
1.82140463e-03	-3.10812046e-02	1.64713081e-02
-1.72842837e-03	-3.77631612e-02	1.67831017e-02
-1.16413040e-02	-2.84473242e-02	1.41785510e-02
2.42661083e-02	1.70481684e-02	1.94929014e-03
3.05557698e-02	1.46814330e-02	1.78047018e-02
5.59479154e-04	-2.14074540e-02	1.41329568e-02
1.48776831e-02	-8.71346739e-03	8.99323030e-03
2.74218486e-02	-2.41099244e-02	4.87704401e-03
3.06115561e-02	3.07683940e-03	5.23133245e-03
9.23884666e-03	-3.86249756e-02	1.73585978e-02
3.04511394e-02	-2.49411882e-02	1.46050789e-02
2.32538789e-02	7.36519206e-03	1.30279877e-02
-8.26910907e-03	-2.91677360e-02	1.30780926e-02
1.38375201e-02	-2.75343691e-02	1.86155573e-03
1.40254733e-02	-8.05521180e-03	1.35763585e-02
2.88407156e-05	-3.61081692e-02	1.76123823e-02
1.34759098e-03	-2.11255006e-02	1.43876837e-03
3.45158192e-02	-1.18592838e-02	1.59791976e-02
2.38400791e-02	3.39399144e-03	1.47786200e-02
3.50958126e-02	-2.03194488e-02	1.46398316e-02
1.86931575e-02	-3.35997506e-02	1.76765631e-02
8.89968687e-03	-2.44382442e-02	2.46439587e-03
2.59515224e-02	-1.72597719e-02	1.31432841e-02
2.78149768e-02	1.04237863e-02	1.06799066e-02
2.77145884e-02	-8.96474223e-03	9.80678750e-03
2.02769656e-02	-2.04112530e-02	6.12032844e-03
3.58546266e-02	-4.69887408e-03	1.81228160e-02
1.47484042e-02	-3.20244654e-02	1.41213477e-02
1.72044916e-02	-2.66757599e-02	1.43801534e-02
3.56968903e-02	-1.82572295e-02	1.79736229e-02
3.14603257e-02	1.92667973e-02	9.93476631e-03
3.53953633e-02	-7.99506513e-03	1.46586067e-02
1.98533598e-02	-2.67186583e-02	7.91663759e-03
2.32943906e-02	-2.54919680e-02	1.39724192e-02
2.47530830e-02	-2.95937846e-02	6.38795207e-03
5.99808811e-03	-2.08642202e-02	1.42229246e-02
2.48565195e-02	-2.17971953e-02	1.17549786e-02
3.97444076e-02	4.51578432e-03	1.49253707e-02
2.89661027e-02	-1.89049383e-03	2.00570885e-03
3.59009606e-02	8.69298322e-05	1.23917271e-02
3.22268503e-02	4.22650379e-03	1.32061317e-02
1.18102360e-02	-2.17989931e-02	1.49435139e-02
[...]
POINT_DATA 469
SCALARS Radius double 1
LOOKUP_TABLE default
2.00000000e-03
2.00000000e-03
2.00000000e-03
2.00000000e-03
2.00000000e-03
2.00000000e-03
2.00000000e-03
2.00000000e-03
2.00000000e-03
2.00000000e-03
2.00000000e-03
2.00000000e-03
2.00000000e-03
2.00000000e-03
2.00000000e-03
2.00000000e-03
2.00000000e-03
2.00000000e-03
2.00000000e-03
2.00000000e-03
2.00000000e-03
2.00000000e-03
2.00000000e-03
2.00000000e-03
2.00000000e-03
2.00000000e-03
2.00000000e-03
2.00000000e-03
2.00000000e-03
2.00000000e-03
2.00000000e-03
2.00000000e-03
2.00000000e-03
2.00000000e-03
2.00000000e-03
2.00000000e-03
2.00000000e-03
2.00000000e-03
2.00000000e-03
2.00000000e-03
2.00000000e-03
2.00000000e-03
2.00000000e-03
2.00000000e-03
2.00000000e-03
2.00000000e-03
2.00000000e-03
2.00000000e-03
2.00000000e-03
2.00000000e-03
2.00000000e-03
2.00000000e-03
2.00000000e-03
2.00000000e-03
2.00000000e-03
2.00000000e-03
2.00000000e-03
2.00000000e-03
2.00000000e-03
2.00000000e-03
2.00000000e-03
2.00000000e-03
2.00000000e-03
2.00000000e-03
2.00000000e-03
2.00000000e-03
2.00000000e-03
2.00000000e-03
2.00000000e-03
2.00000000e-03
2.00000000e-03
2.00000000e-03
2.00000000e-03
2.00000000e-03
2.00000000e-03
2.00000000e-03
2.00000000e-03
2.00000000e-03
2.00000000e-03
2.00000000e-03
2.00000000e-03
2.00000000e-03
2.00000000e-03
2.00000000e-03
2.00000000e-03
2.00000000e-03
2.00000000e-03
2.00000000e-03
2.00000000e-03
2.00000000e-03
2.00000000e-03
2.00000000e-03
2.00000000e-03
2.00000000e-03
2.00000000e-03
2.00000000e-03
2.00000000e-03
2.00000000e-03
2.00000000e-03
2.00000000e-03
2.00000000e-03
2.00000000e-03
2.00000000e-03
2.00000000e-03
2.00000000e-03
2.00000000e-03
2.00000000e-03
2.00000000e-03
2.00000000e-03
2.00000000e-03
2.00000000e-03
2.00000000e-03
2.00000000e-03
2.00000000e-03
2.00000000e-03
2.00000000e-03
2.00000000e-03
2.00000000e-03
2.00000000e-03
2.00000000e-03
2.00000000e-03
2.00000000e-03
2.00000000e-03
2.00000000e-03
2.00000000e-03
2.00000000e-03
2.00000000e-03
2.00000000e-03
2.00000000e-03
2.00000000e-03
2.00000000e-03
2.00000000e-03
2.00000000e-03
2.00000000e-03
2.00000000e-03
2.00000000e-03
2.00000000e-03
2.00000000e-03
2.00000000e-03
2.00000000e-03
2.00000000e-03
2.00000000e-03
2.00000000e-03
2.00000000e-03
2.00000000e-03
2.00000000e-03
2.00000000e-03
2.00000000e-03
2.00000000e-03
2.00000000e-03
2.00000000e-03
2.00000000e-03
2.00000000e-03
2.00000000e-03
2.00000000e-03
2.00000000e-03
2.00000000e-03
2.00000000e-03
2.00000000e-03
2.00000000e-03
2.00000000e-03
2.00000000e-03
2.00000000e-03
2.00000000e-03
2.00000000e-03
2.00000000e-03
2.00000000e-03
2.00000000e-03
2.00000000e-03
2.00000000e-03
2.00000000e-03
2.00000000e-03
2.00000000e-03
2.00000000e-03
2.00000000e-03
2.00000000e-03
2.00000000e-03
2.00000000e-03
2.00000000e-03
2.00000000e-03
2.00000000e-03
2.00000000e-03
2.00000000e-03
2.00000000e-03
2.00000000e-03
2.00000000e-03
2.00000000e-03
2.00000000e-03
2.00000000e-03
2.00000000e-03
2.00000000e-03
2.00000000e-03
2.00000000e-03
2.00000000e-03
2.00000000e-03
2.00000000e-03
2.00000000e-03
2.00000000e-03
2.00000000e-03
2.00000000e-03
2.00000000e-03
2.00000000e-03
2.00000000e-03
2.00000000e-03
2.00000000e-03
2.00000000e-03
2.00000000e-03
2.00000000e-03
2.00000000e-03
2.00000000e-03
2.00000000e-03
2.00000000e-03
2.00000000e-03
2.00000000e-03
2.00000000e-03
2.00000000e-03
2.00000000e-03
2.00000000e-03
2.00000000e-03
2.00000000e-03
2.00000000e-03
2.00000000e-03
2.00000000e-03
2.00000000e-03
2.00000000e-03
2.00000000e-03
2.00000000e-03
2.00000000e-03
2.00000000e-03
2.00000000e-03
2.00000000e-03
2.00000000e-03
2.00000000e-03
2.00000000e-03
2.00000000e-03
2.00000000e-03
2.00000000e-03
2.00000000e-03
2.00000000e-03
2.00000000e-03
2.00000000e-03
2.00000000e-03
2.00000000e-03
2.00000000e-03
2.00000000e-03
2.00000000e-03
2.00000000e-03
2.00000000e-03
2.00000000e-03
2.00000000e-03
2.00000000e-03
2.00000000e-03
2.00000000e-03
2.00000000e-03
2.00000000e-03
2.00000000e-03
2.00000000e-03
2.00000000e-03
2.00000000e-03
2.00000000e-03
2.00000000e-03
2.00000000e-03
2.00000000e-03
2.00000000e-03
2.00000000e-03
2.00000000e-03
2.00000000e-03
2.00000000e-03
2.00000000e-03
2.00000000e-03
2.00000000e-03
2.00000000e-03
2.00000000e-03
2.00000000e-03
2.00000000e-03
2.00000000e-03
2.00000000e-03
2.00000000e-03
2.00000000e-03
2.00000000e-03
2.00000000e-03
2.00000000e-03
2.00000000e-03
2.00000000e-03
2.00000000e-03
2.00000000e-03
2.00000000e-03
2.00000000e-03
2.00000000e-03
2.00000000e-03
2.00000000e-03
2.00000000e-03
2.00000000e-03
2.00000000e-03
2.00000000e-03
2.00000000e-03
2.00000000e-03
2.00000000e-03
2.00000000e-03
2.00000000e-03
2.00000000e-03
2.00000000e-03
2.00000000e-03
2.00000000e-03
2.00000000e-03
2.00000000e-03
2.00000000e-03
2.00000000e-03
2.00000000e-03
2.00000000e-03
2.00000000e-03
2.00000000e-03
2.00000000e-03
2.00000000e-03
2.00000000e-03
2.00000000e-03
2.00000000e-03
2.00000000e-03
2.00000000e-03
2.00000000e-03
2.00000000e-03
2.00000000e-03
2.00000000e-03
2.00000000e-03
2.00000000e-03
2.00000000e-03
2.00000000e-03
2.00000000e-03
2.00000000e-03
2.00000000e-03
2.00000000e-03
2.00000000e-03
2.00000000e-03
2.00000000e-03
2.00000000e-03
2.00000000e-03
2.00000000e-03
2.00000000e-03
2.00000000e-03
2.00000000e-03
2.00000000e-03
2.00000000e-03
2.00000000e-03
2.00000000e-03
2.00000000e-03
2.00000000e-03
2.00000000e-03
2.00000000e-03
2.00000000e-03
2.00000000e-03
2.00000000e-03
2.00000000e-03
2.00000000e-03
2.00000000e-03
2.00000000e-03
2.00000000e-03
2.00000000e-03
2.00000000e-03
2.00000000e-03
2.00000000e-03
2.00000000e-03
2.00000000e-03
2.00000000e-03
2.00000000e-03
2.00000000e-03
2.00000000e-03
2.00000000e-03
2.00000000e-03
2.00000000e-03
2.00000000e-03
2.00000000e-03
2.00000000e-03
2.00000000e-03
2.00000000e-03
2.00000000e-03
2.00000000e-03
2.00000000e-03
2.00000000e-03
2.00000000e-03
2.00000000e-03
2.00000000e-03
2.00000000e-03
2.00000000e-03
2.00000000e-03
2.00000000e-03
2.00000000e-03
2.00000000e-03
2.00000000e-03
2.00000000e-03
2.00000000e-03
2.00000000e-03
2.00000000e-03
2.00000000e-03
2.00000000e-03
2.00000000e-03
2.00000000e-03
2.00000000e-03
2.00000000e-03
2.00000000e-03
2.00000000e-03
2.00000000e-03
2.00000000e-03
2.00000000e-03
2.00000000e-03
2.00000000e-03
2.00000000e-03
2.00000000e-03
2.00000000e-03
2.00000000e-03
2.00000000e-03
2.00000000e-03
2.00000000e-03
2.00000000e-03
2.00000000e-03
2.00000000e-03
2.00000000e-03
2.00000000e-03
2.00000000e-03
2.00000000e-03
2.00000000e-03
2.00000000e-03
2.00000000e-03
2.00000000e-03
2.00000000e-03
2.00000000e-03
2.00000000e-03
2.00000000e-03
2.00000000e-03
2.00000000e-03
2.00000000e-03
2.00000000e-03
2.00000000e-03
2.00000000e-03
2.00000000e-03
2.00000000e-03
2.00000000e-03
2.00000000e-03
2.00000000e-03
2.00000000e-03
2.00000000e-03
2.00000000e-03
2.00000000e-03
2.00000000e-03
2.00000000e-03
2.00000000e-03
2.00000000e-03
2.00000000e-03
2.00000000e-03
2.00000000e-03
2.00000000e-03
2.00000000e-03
2.00000000e-03
2.00000000e-03
2.00000000e-03
2.00000000e-03
2.00000000e-03
2.00000000e-03
2.00000000e-03
2.00000000e-03
2.00000000e-03
2.00000000e-03
2.00000000e-03
2.00000000e-03
2.00000000e-03
2.00000000e-03
2.00000000e-03
2.00000000e-03
2.00000000e-03
2.00000000e-03
