# vtk DataFile Version 2.0
Particle data
ASCII
DATASET POLYDATA
POINTS 469 double
-5.04338818e-03	-3.62421163e-02	1.52695878e-02
7.01710657e-03	-2.05147257e-02	1.27820002e-02
1.72236269e-02	-2.91732734e-03	6.48385791e-03
2.70375191e-02	-1.91620018e-02	1.03388719e-02
7.50618479e-03	-2.57290904e-02	2.35113617e-03
-8.73067976e-03	-2.92851575e-02	3.23600998e-03
-1.06341184e-02	-3.02792427e-02	1.76563777e-02
2.60906896e-02	-1.42749962e-02	1.79126092e-02
2.62679372e-02	1.54686082e-02	1.81526250e-02
3.59278057e-02	-1.30470501e-02	1.81549800e-02
4.97815475e-04	-3.71025471e-02	7.76702668e-03
1.76443288e-03	-2.20954645e-02	1.78745476e-02
3.67778197e-02	1.33329794e-02	1.15065613e-02
1.24211914e-02	-1.39936057e-02	6.03910713e-03
2.28234051e-03	-3.43906821e-02	1.40997103e-02
3.56425214e-02	-1.78713573e-02	1.07477250e-02
2.46451740e-02	-1.27415976e-02	6.37834615e-03
1.73770468e-02	5.80755385e-03	2.01399865e-03
2.45798390e-02	-1.43621284e-02	1.44093901e-02
-6.92981742e-03	-3.86309893e-02	5.57367618e-03
3.67949195e-03	-3.84067680e-02	2.28749787e-03
2.98872712e-02	1.23244144e-02	1.72805428e-02
3.10463658e-02	-2.48369156e-02	2.08076813e-03
1.19700725e-02	-1.08077531e-02	2.93897020e-03
1.68790330e-02	-5.18994231e-03	2.17882174e-03
3.45023669e-02	-1.14940882e-02	8.93987825e-03
1.24423463e-02	-3.71494889e-02	1.53164403e-02
1.89332036e-02	3.06816850e-03	1.31530342e-02
2.41077004e-02	-2.74874667e-02	1.10777789e-02
2.50719547e-02	-9.94705590e-03	1.50992621e-02
9.29499249e-03	-1.09019362e-02	9.18716394e-03
2.06706138e-02	1.09449672e-02	2.67931987e-03
5.97582950e-03	-1.11812772e-02	6.13278463e-03
2.57969985e-02	7.70119596e-03	1.80206299e-02
3.92275632e-02	-2.80918183e-03	1.08483846e-02
1.93236200e-02	-6.91335210e-04	1.10068436e-02
-6.40924088e-03	-3.72843291e-02	9.81225997e-03
2.02878001e-02	-3.47081688e-02	9.88433378e-03
-7.85340912e-04	-2.59049518e-02	1.22696315e-02
2.49702243e-03	-2.76321703e-02	4.01664422e-03
2.11291136e-02	-3.04126776e-02	1.14530413e-02
1.32492111e-02	-2.09636853e-03	1.44613592e-02
3.91475786e-02	-2.79122321e-03	2.25834203e-03
-2.17189179e-03	-3.52520879e-02	1.78376879e-02
2.99767340e-02	-6.90540067e-04	1.55106165e-02
4.25817527e-03	-3.68811235e-02	1.15123811e-02
1.19849226e-02	-2.11006369e-02	1.10425580e-02
1.00495034e-02	-3.78077670e-02	1.34068801e-02
2.03661995e-02	-1.96946235e-02	1.03574457e-02
9.37867752e-04	-3.78898455e-02	1.79786683e-02
2.63186477e-02	-1.25426549e-02	2.12975548e-03
1.63024857e-02	-1.86539007e-02	9.59574276e-03
1.66937391e-02	-3.61166290e-02	1.23715874e-02
2.30877676e-02	-1.47483826e-02	2.71996935e-03
3.18852143e-02	-1.56812411e-02	1.12429975e-02
2.68434135e-02	-2.15520040e-02	1.50867563e-02
3.63620810e-02	-1.54332828e-02	8.72309094e-03
8.68493139e-03	-3.26774496e-02	1.80923542e-02
3.63246744e-02	2.67933248e-03	1.45540505e-02
3.20702733e-02	-3.20790129e-03	1.50021283e-02
3.62342160e-02	4.83105300e-03	1.79275753e-02
2.78559729e-02	4.44821055e-03	9.95917006e-03
1.67057163e-02	-1.78042465e-02	1.79145948e-02
2.93132539e-02	-2.29916665e-02	9.24897478e-03
2.49240669e-02	1.04411415e-02	5.32597082e-03
4.82297319e-03	-3.60959415e-02	6.31176252e-03
3.87735365e-02	-8.00773848e-03	3.22356219e-03
8.30956019e-03	-1.40035062e-02	1.70908862e-02
3.52371861e-02	-8.60345615e-03	6.31045231e-03
3.86954006e-02	9.69861687e-03	9.27195066e-03
2.07511515e-02	-2.87700145e-02	7.19939130e-03
3.21305401e-02	1.40597468e-02	2.56605389e-03
-3.18686433e-03	-3.78418831e-02	1.80391885e-02
-2.38048483e-03	-3.66295464e-02	1.36711747e-02
7.01867551e-03	-8.20171029e-03	1.13861283e-02
2.02697476e-02	-2.84679614e-02	1.75118717e-02
2.24500917e-02	-1.47302500e-02	6.13635105e-03
-8.91232393e-03	-3.34118727e-02	6.68310041e-03
3.78449631e-02	6.96222539e-03	1.84311207e-02
3.48671783e-02	-1.95479743e-02	1.82584047e-02
1.11800925e-02	-3.27677849e-02	9.07992093e-03
2.78097999e-02	2.85486125e-03	6.66816454e-03
2.44517886e-02	-6.85503674e-04	1.60061627e-03
2.86936515e-02	1.89703789e-03	1.80431509e-02
3.31381128e-02	1.66346893e-04	2.07937390e-03
1.31175920e-03	-4.27440972e-02	2.80370625e-03
7.71388438e-03	-2.02186031e-02	1.71007020e-02
3.27823241e-02	-2.23166006e-02	1.09915734e-02
3.48087853e-02	6.31756190e-03	6.35768178e-03
3.25894259e-02	-7.97677823e-03	4.12131737e-03
7.68374839e-03	-3.94282232e-02	1.03231330e-02
3.59751985e-03	-3.15190685e-02	4.82722016e-03
3.07693337e-02	1.52992726e-02	6.22735706e-03
1.10530538e-02	-3.85993664e-02	2.63893862e-03
6.05781175e-03	-1.73117866e-02	9.62022628e-03
2.83979558e-02	1.78730443e-02	7.87152630e-03
3.14984494e-02	-2.48797401e-02	6.10628723e-03
3.54643848e-02	-8.63634726e-03	1.24519849e-02
2.32233560e-02	-4.28618006e-04	1.85839127e-02
1.03275592e-03	-2.42241208e-02	9.03169329e-03
3.09979480e-02	-9.56960603e-03	7.26489044e-03
3.19964316e-02	-8.31731764e-03	1.10575304e-02
2.31085693e-02	-2.89940181e-02	1.56211686e-02
3.63079536e-02	1.13550686e-02	1.71631888e-02
3.24040841e-02	-6.24616355e-03	8.05721268e-03
2.70298743e-03	-4.22523896e-02	1.03312545e-02
2.24671589e-02	-8.57155690e-03	7.46062639e-03
2.64745953e-02	-9.87493071e-03	4.17947085e-03
3.44949316e-02	-8.40613928e-03	1.79847586e-03
4.37924043e-03	-2.63344642e-02	8.45017613e-03
3.45574614e-02	-1.49074169e-02	2.19144958e-03
6.13596017e-03	-3.69660727e-02	1.81041688e-02
1.39351133e-02	-3.00280458e-02	1.71354454e-02
2.80083111e-02	-1.75819928e-02	1.79712857e-03
3.24863250e-02	4.49536875e-03	1.40634156e-02
3.24031524e-02	-3.21771229e-03	1.95678085e-03
7.13430443e-03	-3.96433554e-02	1.44924380e-02
3.67881466e-02	-1.56952030e-02	4.85127613e-03
5.87338382e-03	-2.28504040e-02	6.27198077e-03
9.08161926e-03	-4.41420849e-03	7.20499568e-03
9.25795802e-03	-3.12807085e-02	1.92517602e-03
2.45344863e-02	-7.68641997e-03	1.43696822e-02
-1.13440224e-02	-3.74418881e-02	1.61674040e-02
3.91658720e-02	3.90051554e-03	5.70282724e-03
3.54533717e-02	1.73891512e-02	1.82171901e-02
2.15532868e-03	-4.20900868e-02	1.44724865e-02
-6.89267580e-03	-2.53989619e-02	5.97354306e-03
-6.70040084e-03	-2.90661939e-02	1.27630963e-02
2.71222454e-02	-2.28445512e-02	1.07674402e-02
1.50705189e-02	-2.87142725e-02	1.81549268e-03
2.54048810e-02	-2.07104380e-02	2.38951366e-03
3.64783927e-02	1.56428760e-02	4.36695251e-03
4.50269073e-03	-3.20080741e-02	1.79436355e-02
8.55403229e-03	-6.01526835e-03	1.16298432e-02
1.71015467e-02	-1.39011446e-02	2.63200998e-03
3.94081333e-02	2.62892722e-03	1.31773142e-02
1.08285629e-02	-8.52487428e-03	6.04336520e-03
-1.39855178e-02	-3.42431382e-02	1.23725697e-03
2.48369735e-02	-8.92050536e-03	1.10869926e-02
2.32676819e-02	-1.79954312e-02	1.56804557e-02
3.23121535e-02	9.16085227e-04	1.66678990e-02
1.11006755e-04	-4.06080977e-02	1.06920625e-02
1.38416211e-02	-2.44039672e-02	1.38056182e-02
1.64886811e-02	-3.60692478e-02	2.33293184e-03
-6.98013067e-03	-3.29591646e-02	5.39793623e-03
-2.37846222e-03	-4.00744418e-02	2.10020068e-03
3.33977467e-02	-2.18204199e-02	2.00482241e-03
-2.86264461e-04	-2.84956237e-02	2.01292691e-03
1.78863068e-02	-1.38978128e-02	1.06000818e-02
3.16999319e-02	-1.01560987e-02	1.52685631e-02
1.03402882e-02	-2.96649992e-02	1.75531676e-02
2.69850106e-02	-1.99692058e-03	9.07572292e-03
-5.92282725e-03	-2.90740604e-02	9.45469581e-03
8.68426713e-03	-3.34241756e-02	1.13656761e-02
2.47540181e-02	-1.76816469e-02	8.62376677e-03
2.96515420e-02	-1.89902582e-02	1.39009165e-02
-1.49687880e-03	-2.02402201e-02	4.68924126e-03
1.34458737e-02	-1.82974605e-02	5.97349259e-03
3.72469047e-02	9.04117985e-03	1.48366649e-02
-1.62868442e-04	-2.54709376e-02	4.45346800e-03
2.45217085e-02	1.23688039e-02	8.72846984e-03
-6.84335075e-03	-2.96580340e-02	1.55909989e-03
3.74991811e-02	4.64939746e-03	8.94107113e-03
2.41762576e-02	-2.69767645e-02	1.81711275e-02
2.20496992e-02	-4.83933495e-03	2.25154588e-03
4.75152617e-03	-2.22970888e-02	1.40712650e-02
2.32785513e-02	-1.90286037e-02	5.52249874e-03
-1.54948736e-02	-3.71357040e-02	7.59078315e-03
2.93861512e-02	-2.32103292e-02	1.79785587e-02
3.36516975e-02	-2.20673676e-02	6.05964847e-03
-1.57231595e-02	-2.78312536e-02	1.67988971e-02
3.48567624e-02	-6.62423866e-03	9.84015125e-03
1.51911862e-02	-3.37342531e-02	1.77754899e-02
-8.07106971e-04	-2.86370935e-02	1.70426032e-02
-7.01498556e-03	-3.52966772e-02	1.70062573e-02
-2.84521386e-03	-1.99527107e-02	1.53781045e-02
3.07174411e-02	2.24747832e-02	2.36367942e-03
3.26284042e-02	1.08598429e-02	1.76525083e-02
4.83651960e-03	-1.15150048e-02	1.63431577e-02
2.29494823e-02	-2.44995708e-03	7.62239103e-03
2.44223930e-02	-2.73050588e-02	5.06200681e-03
3.07091894e-02	8.05349853e-04	5.25099344e-03
5.31185724e-03	-3.74219663e-02	1.79008047e-02
2.57719309e-02	-3.01107352e-02	1.40236159e-02
2.68128327e-02	7.94006524e-03	1.27505089e-02
-4.78847892e-03	-2.05464321e-02	1.17371554e-02
1.10478371e-02	-2.86534840e-02	2.16356897e-03
2.19973286e-02	6.62033323e-03	1.22442044e-02
-4.37013218e-03	-3.52622569e-02	1.76980588e-02
8.92620833e-03	-6.25966161e-03	1.84209562e-03
3.28502048e-02	-1.60403650e-02	1.56368989e-02
2.60718958e-02	4.29072719e-03	1.51909588e-02
3.15586947e-02	-2.48064537e-02	1.50191587e-02
1.48503760e-02	-3.60873217e-02	1.75744001e-02
9.35039469e-03	-1.86058754e-02	4.11226809e-03
2.41026895e-02	-1.98904955e-02	1.30866043e-02
3.12105029e-02	9.76465245e-03	1.13815148e-02
2.76253328e-02	-1.04648170e-02	9.81341707e-03
1.75996683e-02	-2.33379717e-02	6.46868127e-03
3.59707076e-02	-7.67066035e-03	1.82987147e-02
8.67770514e-03	-3.54660997e-02	1.45580497e-02
1.21485522e-02	-3.04828309e-02	1.44325876e-02
3.22216243e-02	-2.29902186e-02	1.80183472e-02
3.48537214e-02	1.67143969e-02	1.07363719e-02
3.44427245e-02	-1.22533218e-02	1.48105676e-02
1.43597087e-02	-3.07619991e-02	7.91392995e-03
1.92565336e-02	-2.84226207e-02	1.34290018e-02
2.00812140e-02	-3.29107915e-02	6.24653169e-03
1.07300959e-02	-9.87113761e-03	1.36467234e-02
2.17194679e-02	-2.40385978e-02	1.18676393e-02
3.90157760e-02	-1.16282704e-03	1.45421989e-02
2.94929991e-02	-5.65228147e-03	2.00604828e-03
3.59022577e-02	-3.40772253e-03	1.30248810e-02
3.32781105e-02	4.23811057e-04	1.31717781e-02
1.10697679e-02	-1.39579591e-02	1.45151016e-02
[...]
POINT_DATA 469
SCALARS Radius double 1
LOOKUP_TABLE default
2.00000000e-03
2.00000000e-03
2.00000000e-03
2.00000000e-03
2.00000000e-03
2.00000000e-03
2.00000000e-03
2.00000000e-03
2.00000000e-03
2.00000000e-03
2.00000000e-03
2.00000000e-03
2.00000000e-03
2.00000000e-03
2.00000000e-03
2.00000000e-03
2.00000000e-03
2.00000000e-03
2.00000000e-03
2.00000000e-03
2.00000000e-03
2.00000000e-03
2.00000000e-03
2.00000000e-03
2.00000000e-03
2.00000000e-03
2.00000000e-03
2.00000000e-03
2.00000000e-03
2.00000000e-03
2.00000000e-03
2.00000000e-03
2.00000000e-03
2.00000000e-03
2.00000000e-03
2.00000000e-03
2.00000000e-03
2.00000000e-03
2.00000000e-03
2.00000000e-03
2.00000000e-03
2.00000000e-03
2.00000000e-03
2.00000000e-03
2.00000000e-03
2.00000000e-03
2.00000000e-03
2.00000000e-03
2.00000000e-03
2.00000000e-03
2.00000000e-03
2.00000000e-03
2.00000000e-03
2.00000000e-03
2.00000000e-03
2.00000000e-03
2.00000000e-03
2.00000000e-03
2.00000000e-03
2.00000000e-03
2.00000000e-03
2.00000000e-03
2.00000000e-03
2.00000000e-03
2.00000000e-03
2.00000000e-03
2.00000000e-03
2.00000000e-03
2.00000000e-03
2.00000000e-03
2.00000000e-03
2.00000000e-03
2.00000000e-03
2.00000000e-03
2.00000000e-03
2.00000000e-03
2.00000000e-03
2.00000000e-03
2.00000000e-03
2.00000000e-03
2.00000000e-03
2.00000000e-03
2.00000000e-03
2.00000000e-03
2.00000000e-03
2.00000000e-03
2.00000000e-03
2.00000000e-03
2.00000000e-03
2.00000000e-03
2.00000000e-03
2.00000000e-03
2.00000000e-03
2.00000000e-03
2.00000000e-03
2.00000000e-03
2.00000000e-03
2.00000000e-03
2.00000000e-03
2.00000000e-03
2.00000000e-03
2.00000000e-03
2.00000000e-03
2.00000000e-03
2.00000000e-03
2.00000000e-03
2.00000000e-03
2.00000000e-03
2.00000000e-03
2.00000000e-03
2.00000000e-03
2.00000000e-03
2.00000000e-03
2.00000000e-03
2.00000000e-03
2.00000000e-03
2.00000000e-03
2.00000000e-03
2.00000000e-03
2.00000000e-03
2.00000000e-03
2.00000000e-03
2.00000000e-03
2.00000000e-03
2.00000000e-03
2.00000000e-03
2.00000000e-03
2.00000000e-03
2.00000000e-03
2.00000000e-03
2.00000000e-03
2.00000000e-03
2.00000000e-03
2.00000000e-03
2.00000000e-03
2.00000000e-03
2.00000000e-03
2.00000000e-03
2.00000000e-03
2.00000000e-03
2.00000000e-03
2.00000000e-03
2.00000000e-03
2.00000000e-03
2.00000000e-03
2.00000000e-03
2.00000000e-03
2.00000000e-03
2.00000000e-03
2.00000000e-03
2.00000000e-03
2.00000000e-03
2.00000000e-03
2.00000000e-03
2.00000000e-03
2.00000000e-03
2.00000000e-03
2.00000000e-03
2.00000000e-03
2.00000000e-03
2.00000000e-03
2.00000000e-03
2.00000000e-03
2.00000000e-03
2.00000000e-03
2.00000000e-03
2.00000000e-03
2.00000000e-03
2.00000000e-03
2.00000000e-03
2.00000000e-03
2.00000000e-03
2.00000000e-03
2.00000000e-03
2.00000000e-03
2.00000000e-03
2.00000000e-03
2.00000000e-03
2.00000000e-03
2.00000000e-03
2.00000000e-03
2.00000000e-03
2.00000000e-03
2.00000000e-03
2.00000000e-03
2.00000000e-03
2.00000000e-03
2.00000000e-03
2.00000000e-03
2.00000000e-03
2.00000000e-03
2.00000000e-03
2.00000000e-03
2.00000000e-03
2.00000000e-03
2.00000000e-03
2.00000000e-03
2.00000000e-03
2.00000000e-03
2.00000000e-03
2.00000000e-03
2.00000000e-03
2.00000000e-03
2.00000000e-03
2.00000000e-03
2.00000000e-03
2.00000000e-03
2.00000000e-03
2.00000000e-03
2.00000000e-03
2.00000000e-03
2.00000000e-03
2.00000000e-03
2.00000000e-03
2.00000000e-03
2.00000000e-03
2.00000000e-03
2.00000000e-03
2.00000000e-03
2.00000000e-03
2.00000000e-03
2.00000000e-03
2.00000000e-03
2.00000000e-03
2.00000000e-03
2.00000000e-03
2.00000000e-03
2.00000000e-03
2.00000000e-03
2.00000000e-03
2.00000000e-03
2.00000000e-03
2.00000000e-03
2.00000000e-03
2.00000000e-03
2.00000000e-03
2.00000000e-03
2.00000000e-03
2.00000000e-03
2.00000000e-03
2.00000000e-03
2.00000000e-03
2.00000000e-03
2.00000000e-03
2.00000000e-03
2.00000000e-03
2.00000000e-03
2.00000000e-03
2.00000000e-03
2.00000000e-03
2.00000000e-03
2.00000000e-03
2.00000000e-03
2.00000000e-03
2.00000000e-03
2.00000000e-03
2.00000000e-03
2.00000000e-03
2.00000000e-03
2.00000000e-03
2.00000000e-03
2.00000000e-03
2.00000000e-03
2.00000000e-03
2.00000000e-03
2.00000000e-03
2.00000000e-03
2.00000000e-03
2.00000000e-03
2.00000000e-03
2.00000000e-03
2.00000000e-03
2.00000000e-03
2.00000000e-03
2.00000000e-03
2.00000000e-03
2.00000000e-03
2.00000000e-03
2.00000000e-03
2.00000000e-03
2.00000000e-03
2.00000000e-03
2.00000000e-03
2.00000000e-03
2.00000000e-03
2.00000000e-03
2.00000000e-03
2.00000000e-03
2.00000000e-03
2.00000000e-03
2.00000000e-03
2.00000000e-03
2.00000000e-03
2.00000000e-03
2.00000000e-03
2.00000000e-03
2.00000000e-03
2.00000000e-03
2.00000000e-03
2.00000000e-03
2.00000000e-03
2.00000000e-03
2.00000000e-03
2.00000000e-03
2.00000000e-03
2.00000000e-03
2.00000000e-03
2.00000000e-03
2.00000000e-03
2.00000000e-03
2.00000000e-03
2.00000000e-03
2.00000000e-03
2.00000000e-03
2.00000000e-03
2.00000000e-03
2.00000000e-03
2.00000000e-03
2.00000000e-03
2.00000000e-03
2.00000000e-03
2.00000000e-03
2.00000000e-03
2.00000000e-03
2.00000000e-03
2.00000000e-03
2.00000000e-03
2.00000000e-03
2.00000000e-03
2.00000000e-03
2.00000000e-03
2.00000000e-03
2.00000000e-03
2.00000000e-03
2.00000000e-03
2.00000000e-03
2.00000000e-03
2.00000000e-03
2.00000000e-03
2.00000000e-03
2.00000000e-03
2.00000000e-03
2.00000000e-03
2.00000000e-03
2.00000000e-03
2.00000000e-03
2.00000000e-03
2.00000000e-03
2.00000000e-03
2.00000000e-03
2.00000000e-03
2.00000000e-03
2.00000000e-03
2.00000000e-03
2.00000000e-03
2.00000000e-03
2.00000000e-03
2.00000000e-03
2.00000000e-03
2.00000000e-03
2.00000000e-03
2.00000000e-03
2.00000000e-03
2.00000000e-03
2.00000000e-03
2.00000000e-03
2.00000000e-03
2.00000000e-03
2.00000000e-03
2.00000000e-03
2.00000000e-03
2.00000000e-03
2.00000000e-03
2.00000000e-03
2.00000000e-03
2.00000000e-03
2.00000000e-03
2.00000000e-03
2.00000000e-03
2.00000000e-03
2.00000000e-03
2.00000000e-03
2.00000000e-03
2.00000000e-03
2.00000000e-03
2.00000000e-03
2.00000000e-03
2.00000000e-03
2.00000000e-03
2.00000000e-03
2.00000000e-03
2.00000000e-03
2.00000000e-03
2.00000000e-03
2.00000000e-03
2.00000000e-03
2.00000000e-03
2.00000000e-03
2.00000000e-03
2.00000000e-03
2.00000000e-03
2.00000000e-03
2.00000000e-03
2.00000000e-03
2.00000000e-03
2.00000000e-03
2.00000000e-03
2.00000000e-03
2.00000000e-03
2.00000000e-03
2.00000000e-03
2.00000000e-03
2.00000000e-03
2.00000000e-03
2.00000000e-03
2.00000000e-03
2.00000000e-03
2.00000000e-03
2.00000000e-03
2.00000000e-03
2.00000000e-03
2.00000000e-03
2.00000000e-03
2.00000000e-03
2.00000000e-03
2.00000000e-03
2.00000000e-03
2.00000000e-03
2.00000000e-03
2.00000000e-03
2.00000000e-03
2.00000000e-03
2.00000000e-03
2.00000000e-03
2.00000000e-03
2.00000000e-03
2.00000000e-03
2.00000000e-03
2.00000000e-03
2.00000000e-03
2.00000000e-03
2.00000000e-03
2.00000000e-03
2.00000000e-03
2.00000000e-03
2.00000000e-03
2.00000000e-03
2.00000000e-03
2.00000000e-03
2.00000000e-03
2.00000000e-03
2.00000000e-03
2.00000000e-03
2.00000000e-03
2.00000000e-03
2.00000000e-03
2.00000000e-03
2.00000000e-03
2.00000000e-03
2.00000000e-03
2.00000000e-03
2.00000000e-03
2.00000000e-03
2.00000000e-03
2.00000000e-03
2.00000000e-03
2.00000000e-03
2.00000000e-03
2.00000000e-03
