# vtk DataFile Version 2.0
Particle data
ASCII
DATASET POLYDATA
POINTS 469 double
3.76860987e-02	-2.15460341e-03	1.39902664e-02
3.03540795e-02	-7.92559971e-04	1.31689311e-02
2.63961624e-02	-2.98601422e-02	1.45362301e-02
1.22684765e-02	-7.50854964e-03	9.06114838e-03
2.90459865e-02	4.18020248e-03	2.88083944e-03
3.47329900e-02	-1.18217788e-02	2.21349169e-03
3.62014138e-02	-1.70626376e-02	1.83072630e-02
4.88147459e-03	-2.63950827e-02	1.73327153e-02
1.77579787e-02	-3.48763828e-02	1.66557078e-02
-6.89242206e-03	-3.04029830e-02	1.47310307e-02
3.70886742e-02	-4.53713895e-04	6.73762003e-03
3.13189457e-02	-5.89851125e-03	1.78122254e-02
1.78351623e-03	-3.97687501e-02	8.06669026e-03
2.67577705e-02	-5.88271117e-03	5.26281444e-03
3.53727323e-02	3.89230153e-03	1.38413731e-02
4.88803287e-03	-1.23695847e-02	1.03948780e-02
1.81192549e-02	-1.37640300e-02	7.94317686e-03
2.97701459e-02	-1.35384630e-02	2.38641674e-03
1.70099948e-02	-1.51988085e-02	1.54138144e-02
3.83118700e-02	-8.21589567e-03	4.68621347e-03
3.59236439e-02	4.63781232e-03	1.92581560e-03
2.07516330e-02	-2.94360040e-02	1.80680730e-02
1.60959573e-02	1.34112687e-02	2.24167677e-03
2.68224149e-02	-2.59257325e-02	5.43760392e-03
2.87074613e-02	-2.11620110e-02	5.32801188e-03
-1.72041757e-02	-3.63975646e-02	1.46859944e-02
3.71980004e-02	9.28074457e-03	1.49050951e-02
2.81697688e-02	-2.20489893e-02	1.74488251e-02
1.77235036e-02	4.89534638e-03	1.07318311e-02
3.04102664e-03	-3.40922299e-02	1.88249885e-02
3.06083043e-02	-5.61070354e-03	8.67145963e-03
1.68811203e-02	-3.56465250e-02	9.15814678e-03
2.87667952e-02	-1.15264673e-02	8.17813245e-03
1.85215720e-02	-2.50581224e-02	1.51806622e-02
1.13506272e-03	-3.67294251e-02	8.47286736e-03
2.20285714e-02	-1.88491569e-02	1.51665880e-02
3.94690119e-02	-5.86219838e-03	9.69678086e-03
3.04518864e-02	1.57457763e-02	1.04270795e-02
3.27785717e-02	-9.98363010e-03	1.39139674e-02
3.21659797e-02	-5.56717926e-03	4.58478425e-03
2.51681999e-02	9.61123389e-03	1.30867557e-02
2.70156341e-02	-2.26639582e-02	1.59427534e-02
9.66986389e-04	-3.11415447e-02	3.87333623e-03
3.76994817e-02	-1.54361117e-03	1.74093655e-02
1.46594841e-02	-2.42103955e-02	1.39784287e-02
3.60213934e-02	5.87936424e-03	1.09466472e-02
2.45941247e-02	-4.71101475e-03	1.42199682e-02
3.21142958e-02	8.59473316e-03	1.38686449e-02
1.75505694e-02	-1.36397283e-02	1.36335415e-02
3.83931054e-02	-2.73592526e-03	1.76653939e-02
1.03455377e-02	-1.20067754e-02	2.15601207e-03
2.30089977e-02	-1.23914558e-03	1.11569712e-02
3.35643700e-02	1.17777465e-02	1.26929428e-02
1.15103785e-02	-1.75710027e-02	1.89795563e-03
3.33171337e-03	-2.51125012e-02	6.51558198e-03
2.46725724e-03	-1.38146526e-02	1.66927962e-02
-4.39656893e-04	-2.52901338e-02	6.82225616e-03
3.25787628e-02	7.88661612e-03	1.81329657e-02
8.26154115e-03	-3.15407854e-02	1.45932796e-02
4.46626851e-03	-3.26641147e-02	1.40775685e-02
9.41834964e-03	-3.55540558e-02	1.18271659e-02
2.01180105e-02	-2.46233179e-02	1.20030927e-02
1.27848238e-02	-1.63121837e-02	1.77274191e-02
1.05613826e-02	2.42612146e-03	1.02144856e-02
2.41783219e-02	-2.33343196e-02	3.68622052e-03
3.36999488e-02	6.00947591e-03	6.05394476e-03
-9.70998648e-03	-3.30043148e-02	7.29389527e-03
2.95453574e-02	-1.33658540e-02	1.59336130e-02
6.05611520e-04	-3.20073214e-02	7.17519216e-03
6.56839022e-03	-3.80353280e-02	3.00037994e-03
2.55468353e-02	1.11468158e-02	8.85532827e-03
1.59912720e-02	-3.46863823e-02	5.62109069e-03
3.90227167e-02	-3.86278884e-03	1.75388305e-02
3.75626794e-02	-6.21013125e-03	1.36816029e-02
2.60958884e-02	-2.95764869e-02	2.22900312e-03
2.15116666e-02	1.07090328e-02	1.80124099e-02
6.59130069e-03	-3.51185785e-02	5.81890354e-03
3.84531073e-02	-1.35078414e-02	6.01581089e-03
2.12105445e-03	-4.03893444e-02	1.85723736e-02
6.36357183e-03	-7.08987315e-03	1.68680941e-02
3.19359855e-02	8.95824150e-03	9.83197333e-03
2.07209495e-02	-1.03414204e-02	1.03190917e-02
1.30512945e-02	-2.55109385e-02	7.13927693e-03
1.62488611e-02	-2.56703864e-02	1.79945906e-02
1.28569531e-02	-3.30999161e-02	3.23049406e-03
3.97441268e-02	3.92943388e-03	1.85964375e-03
2.69054988e-02	2.30950080e-04	1.71706573e-02
1.70463996e-02	6.49023495e-03	1.05221693e-02
2.10924314e-02	-2.48963829e-02	6.54256973e-03
6.62545744e-03	-2.51787650e-02	6.24901944e-03
3.90826742e-02	7.76546746e-03	1.14316607e-02
3.56717727e-02	1.13909003e-03	3.94635664e-03
2.39693586e-02	-3.15626571e-02	9.23575070e-03
3.68120724e-02	1.15434286e-02	1.86126284e-03
2.64791201e-02	-1.56361235e-02	1.10097888e-02
1.36422524e-02	-3.72447398e-02	1.77175398e-02
2.24944671e-02	1.98369861e-02	1.05938720e-02
-4.67332248e-03	-3.49892973e-02	1.28334239e-02
2.14729257e-02	-2.43350551e-02	1.01370601e-02
3.16511678e-02	-1.15279384e-02	1.03482267e-02
8.39687868e-04	-3.36047066e-02	1.11809572e-02
1.27073468e-02	-1.52106642e-02	1.86059195e-02
2.50914823e-02	1.51431082e-02	1.74194987e-02
1.54755849e-02	-3.14991093e-02	1.57744791e-02
3.80098113e-03	-3.70510338e-02	1.63338641e-02
3.97343367e-02	5.87987495e-03	1.21381055e-02
2.07192863e-02	-1.91241806e-02	7.92634732e-03
6.74252359e-03	-3.22394970e-02	9.58505721e-03
2.77950291e-03	-2.40136613e-02	2.55912343e-03
3.22453515e-02	-2.86365032e-03	9.39182302e-03
-1.16769902e-03	-2.26217156e-02	7.03402777e-03
3.59957762e-02	9.85563507e-03	1.85498141e-02
2.82113847e-02	1.57667600e-02	1.81167779e-02
1.07019880e-02	-1.60195748e-02	6.62105813e-03
6.82111511e-03	-3.91726914e-02	1.81066741e-02
-1.78120493e-03	-3.71241573e-02	1.73043107e-03
3.77447303e-02	5.11330807e-03	1.42352300e-02
-2.20251415e-03	-1.49332105e-02	6.43094462e-03
2.71959768e-02	-6.22546313e-04	8.09521853e-03
3.39745821e-02	-2.13610739e-02	2.22758347e-03
3.34980424e-02	1.01714738e-02	2.60814129e-03
1.76034937e-02	-2.79468917e-02	1.17670766e-02
3.65956534e-02	-1.26644445e-02	1.67771095e-02
2.83984194e-03	-3.84156248e-02	1.26100545e-03
2.12227792e-02	-3.41819703e-02	1.79088309e-02
4.04745503e-02	1.71717599e-03	1.36498204e-02
3.61013544e-02	-1.37992549e-02	5.39527407e-03
3.60428431e-02	-1.08663525e-02	1.23206741e-02
3.21387557e-03	-1.20363069e-02	1.26140840e-02
2.66325782e-02	1.25120955e-02	2.25875311e-03
1.14207922e-02	-5.48139193e-04	1.91201027e-03
1.11702694e-02	-3.77884083e-02	9.95686541e-03
3.28382729e-02	2.68427800e-03	1.91132852e-02
3.38716485e-02	-1.88545476e-02	7.57188748e-03
2.33051352e-02	-1.28914640e-02	6.41841753e-03
3.73748455e-03	-3.86548164e-02	1.12655485e-02
2.80749281e-02	-6.82825684e-03	8.02180840e-03
3.75230277e-02	-1.51872421e-02	2.87865561e-03
1.25235059e-02	-3.66622584e-02	1.19145147e-02
2.08148121e-02	-1.37847056e-02	1.79138589e-02
5.26740067e-04	-3.62996676e-02	1.82237271e-02
3.92325374e-02	-2.46315774e-04	9.42333229e-03
2.10265989e-02	-3.02848926e-03	1.41583202e-02
3.45454049e-02	1.25350468e-02	1.79682208e-03
3.48756824e-02	-9.94939864e-03	6.31299043e-03
3.91265746e-02	-4.94975232e-03	2.61055826e-03
1.52802670e-02	9.26108625e-03	2.26523840e-03
3.34603444e-02	-4.41442170e-03	1.92233499e-03
2.22423461e-02	-1.40801521e-02	1.04198558e-02
-6.30236240e-03	-3.86057070e-02	1.74886550e-02
3.02615776e-02	1.24813219e-02	1.77960786e-02
1.66329764e-02	-2.41068147e-02	9.10366046e-03
3.42315161e-02	-1.03910413e-02	9.96652873e-03
3.09855168e-02	8.18917046e-03	1.31313094e-02
1.15302939e-02	-1.45178051e-02	4.93280630e-03
-6.78939736e-03	-2.14388547e-02	1.40869318e-02
3.41507663e-02	-1.51455954e-02	1.44738941e-03
2.36004216e-02	1.62307096e-03	5.60034214e-03
6.38262800e-03	-4.08401662e-02	1.82449914e-02
3.10188666e-02	-5.40027610e-03	3.65884941e-03
3.05182561e-02	-2.25582252e-02	9.29541384e-03
3.93132426e-02	-9.59650870e-03	2.55912953e-03
1.13868727e-02	-2.87364657e-02	7.50633215e-03
2.86922310e-02	1.90887057e-02	1.92214491e-02
1.37457522e-02	-2.26242500e-02	5.60498834e-03
3.09558400e-02	-6.19687946e-03	1.26769856e-02
7.36736152e-03	-2.33082253e-02	7.51271632e-03
3.66261948e-02	-1.61828459e-02	8.57066703e-03
9.57327416e-03	9.24646345e-04	1.77867732e-02
9.64022701e-03	2.19095635e-03	7.73095974e-03
3.38959941e-02	-2.10053793e-02	1.64100598e-02
-1.02761797e-02	-3.84296601e-02	3.14679502e-03
3.35198779e-02	1.77018794e-02	1.79500662e-02
3.19331920e-02	-6.49281995e-04	1.67036770e-02
3.80338274e-02	-9.94391837e-03	1.77484195e-02
2.68388524e-02	-2.89775640e-02	9.74573526e-03
2.25005760e-02	-2.05426323e-02	1.65285112e-03
1.28049032e-02	-3.59933433e-02	9.71969494e-03
2.42170251e-02	-2.78555732e-02	1.56873779e-02
1.97454081e-02	-3.19529241e-02	4.99267321e-03
1.93903078e-02	1.12554573e-02	4.58654170e-03
2.45516957e-02	-1.98569674e-02	6.04346373e-03
3.87630203e-02	5.05259762e-03	1.77853214e-02
3.10239239e-02	2.36168408e-02	1.48009639e-02
2.35389427e-02	-2.09006236e-02	1.84177581e-02
3.31317086e-02	-1.56639347e-02	1.01876817e-02
2.55511067e-02	8.62182985e-03	1.80730314e-03
2.77955639e-02	-2.22183219e-02	1.17777288e-02
3.57994772e-02	-5.32421017e-03	1.81379457e-02
3.00339320e-02	-1.76359839e-02	3.21732312e-03
6.02170372e-03	-2.13855813e-02	1.12592441e-02
1.42996755e-02	-1.92533282e-02	1.75054081e-02
2.52536974e-02	1.75034793e-02	1.52388458e-02
3.62803155e-02	1.43772823e-02	1.90808484e-02
2.72177049e-02	4.68939213e-03	2.95897735e-03
5.01474961e-03	-1.89770609e-02	1.20134134e-02
2.06518603e-02	-2.68288598e-02	1.37522676e-02
1.81227283e-02	-2.13923438e-02	1.00903954e-02
2.27536201e-02	-1.63297899e-03	7.53810668e-03
-4.82462140e-03	-3.10572904e-02	1.42664413e-02
3.50255793e-02	7.67309500e-03	1.40668629e-02
2.98173000e-02	1.29858931e-02	1.54489912e-02
1.90027487e-02	8.05440591e-03	1.83256356e-02
1.85021627e-02	-3.15676002e-02	1.37099836e-02
-2.47834622e-03	-2.92511817e-02	1.77361414e-02
2.74723327e-02	1.22572146e-02	6.84726697e-03
2.05668256e-02	3.64702560e-03	1.52150003e-02
3.09848567e-02	1.18185525e-02	5.54777035e-03
2.87921949e-02	-6.69311475e-03	1.52176467e-02
1.81381786e-02	-2.92714851e-03	1.36643872e-02
2.61743182e-03	-3.61063610e-02	1.50040336e-02
7.21631579e-03	-2.14064515e-02	1.79026601e-03
-3.35598808e-03	-4.05107468e-02	1.48624720e-02
1.51799902e-02	-2.96205164e-02	1.62233042e-02
2.07750653e-02	-9.76937193e-03	1.77882715e-02
2.27953221e-02	-1.41437008e-02	3.24597023e-03
[...]
POINT_DATA 469
SCALARS Radius double 1
LOOKUP_TABLE default
2.00000000e-03
2.00000000e-03
2.00000000e-03
2.00000000e-03
2.00000000e-03
2.00000000e-03
2.00000000e-03
2.00000000e-03
2.00000000e-03
2.00000000e-03
2.00000000e-03
2.00000000e-03
2.00000000e-03
2.00000000e-03
2.00000000e-03
2.00000000e-03
2.00000000e-03
2.00000000e-03
2.00000000e-03
2.00000000e-03
2.00000000e-03
2.00000000e-03
2.00000000e-03
2.00000000e-03
2.00000000e-03
2.00000000e-03
2.00000000e-03
2.00000000e-03
2.00000000e-03
2.00000000e-03
2.00000000e-03
2.00000000e-03
2.00000000e-03
2.00000000e-03
2.00000000e-03
2.00000000e-03
2.00000000e-03
2.00000000e-03
2.00000000e-03
2.00000000e-03
2.00000000e-03
2.00000000e-03
2.00000000e-03
2.00000000e-03
2.00000000e-03
2.00000000e-03
2.00000000e-03
2.00000000e-03
2.00000000e-03
2.00000000e-03
2.00000000e-03
2.00000000e-03
2.00000000e-03
2.00000000e-03
2.00000000e-03
2.00000000e-03
2.00000000e-03
2.00000000e-03
2.00000000e-03
2.00000000e-03
2.00000000e-03
2.00000000e-03
2.00000000e-03
2.00000000e-03
2.00000000e-03
2.00000000e-03
2.00000000e-03
2.00000000e-03
2.00000000e-03
2.00000000e-03
2.00000000e-03
2.00000000e-03
2.00000000e-03
2.00000000e-03
2.00000000e-03
2.00000000e-03
2.00000000e-03
2.00000000e-03
2.00000000e-03
2.00000000e-03
2.00000000e-03
2.00000000e-03
2.00000000e-03
2.00000000e-03
2.00000000e-03
2.00000000e-03
2.00000000e-03
2.00000000e-03
2.00000000e-03
2.00000000e-03
2.00000000e-03
2.00000000e-03
2.00000000e-03
2.00000000e-03
2.00000000e-03
2.00000000e-03
2.00000000e-03
2.00000000e-03
2.00000000e-03
2.00000000e-03
2.00000000e-03
2.00000000e-03
2.00000000e-03
2.00000000e-03
2.00000000e-03
2.00000000e-03
2.00000000e-03
2.00000000e-03
2.00000000e-03
2.00000000e-03
2.00000000e-03
2.00000000e-03
2.00000000e-03
2.00000000e-03
2.00000000e-03
2.00000000e-03
2.00000000e-03
2.00000000e-03
2.00000000e-03
2.00000000e-03
2.00000000e-03
2.00000000e-03
2.00000000e-03
2.00000000e-03
2.00000000e-03
2.00000000e-03
2.00000000e-03
2.00000000e-03
2.00000000e-03
2.00000000e-03
2.00000000e-03
2.00000000e-03
2.00000000e-03
2.00000000e-03
2.00000000e-03
2.00000000e-03
2.00000000e-03
2.00000000e-03
2.00000000e-03
2.00000000e-03
2.00000000e-03
2.00000000e-03
2.00000000e-03
2.00000000e-03
2.00000000e-03
2.00000000e-03
2.00000000e-03
2.00000000e-03
2.00000000e-03
2.00000000e-03
2.00000000e-03
2.00000000e-03
2.00000000e-03
2.00000000e-03
2.00000000e-03
2.00000000e-03
2.00000000e-03
2.00000000e-03
2.00000000e-03
2.00000000e-03
2.00000000e-03
2.00000000e-03
2.00000000e-03
2.00000000e-03
2.00000000e-03
2.00000000e-03
2.00000000e-03
2.00000000e-03
2.00000000e-03
2.00000000e-03
2.00000000e-03
2.00000000e-03
2.00000000e-03
2.00000000e-03
2.00000000e-03
2.00000000e-03
2.00000000e-03
2.00000000e-03
2.00000000e-03
2.00000000e-03
2.00000000e-03
2.00000000e-03
2.00000000e-03
2.00000000e-03
2.00000000e-03
2.00000000e-03
2.00000000e-03
2.00000000e-03
2.00000000e-03
2.00000000e-03
2.00000000e-03
2.00000000e-03
2.00000000e-03
2.00000000e-03
2.00000000e-03
2.00000000e-03
2.00000000e-03
2.00000000e-03
2.00000000e-03
2.00000000e-03
2.00000000e-03
2.00000000e-03
2.00000000e-03
2.00000000e-03
2.00000000e-03
2.00000000e-03
2.00000000e-03
2.00000000e-03
2.00000000e-03
2.00000000e-03
2.00000000e-03
2.00000000e-03
2.00000000e-03
2.00000000e-03
2.00000000e-03
2.00000000e-03
2.00000000e-03
2.00000000e-03
2.00000000e-03
2.00000000e-03
2.00000000e-03
2.00000000e-03
2.00000000e-03
2.00000000e-03
2.00000000e-03
2.00000000e-03
2.00000000e-03
2.00000000e-03
2.00000000e-03
2.00000000e-03
2.00000000e-03
2.00000000e-03
2.00000000e-03
2.00000000e-03
2.00000000e-03
2.00000000e-03
2.00000000e-03
2.00000000e-03
2.00000000e-03
2.00000000e-03
2.00000000e-03
2.00000000e-03
2.00000000e-03
2.00000000e-03
2.00000000e-03
2.00000000e-03
2.00000000e-03
2.00000000e-03
2.00000000e-03
2.00000000e-03
2.00000000e-03
2.00000000e-03
2.00000000e-03
2.00000000e-03
2.00000000e-03
2.00000000e-03
2.00000000e-03
2.00000000e-03
2.00000000e-03
2.00000000e-03
2.00000000e-03
2.00000000e-03
2.00000000e-03
2.00000000e-03
2.00000000e-03
2.00000000e-03
2.00000000e-03
2.00000000e-03
2.00000000e-03
2.00000000e-03
2.00000000e-03
2.00000000e-03
2.00000000e-03
2.00000000e-03
2.00000000e-03
2.00000000e-03
2.00000000e-03
2.00000000e-03
2.00000000e-03
2.00000000e-03
2.00000000e-03
2.00000000e-03
2.00000000e-03
2.00000000e-03
2.00000000e-03
2.00000000e-03
2.00000000e-03
2.00000000e-03
2.00000000e-03
2.00000000e-03
2.00000000e-03
2.00000000e-03
2.00000000e-03
2.00000000e-03
2.00000000e-03
2.00000000e-03
2.00000000e-03
2.00000000e-03
2.00000000e-03
2.00000000e-03
2.00000000e-03
2.00000000e-03
2.00000000e-03
2.00000000e-03
2.00000000e-03
2.00000000e-03
2.00000000e-03
2.00000000e-03
2.00000000e-03
2.00000000e-03
2.00000000e-03
2.00000000e-03
2.00000000e-03
2.00000000e-03
2.00000000e-03
2.00000000e-03
2.00000000e-03
2.00000000e-03
2.00000000e-03
2.00000000e-03
2.00000000e-03
2.00000000e-03
2.00000000e-03
2.00000000e-03
2.00000000e-03
2.00000000e-03
2.00000000e-03
2.00000000e-03
2.00000000e-03
2.00000000e-03
2.00000000e-03
2.00000000e-03
2.00000000e-03
2.00000000e-03
2.00000000e-03
2.00000000e-03
2.00000000e-03
2.00000000e-03
2.00000000e-03
2.00000000e-03
2.00000000e-03
2.00000000e-03
2.00000000e-03
2.00000000e-03
2.00000000e-03
2.00000000e-03
2.00000000e-03
2.00000000e-03
2.00000000e-03
2.00000000e-03
2.00000000e-03
2.00000000e-03
2.00000000e-03
2.00000000e-03
2.00000000e-03
2.00000000e-03
2.00000000e-03
2.00000000e-03
2.00000000e-03
2.00000000e-03
2.00000000e-03
2.00000000e-03
2.00000000e-03
2.00000000e-03
2.00000000e-03
2.00000000e-03
2.00000000e-03
2.00000000e-03
2.00000000e-03
2.00000000e-03
2.00000000e-03
2.00000000e-03
2.00000000e-03
2.00000000e-03
2.00000000e-03
2.00000000e-03
2.00000000e-03
2.00000000e-03
2.00000000e-03
2.00000000e-03
2.00000000e-03
2.00000000e-03
2.00000000e-03
2.00000000e-03
2.00000000e-03
2.00000000e-03
2.00000000e-03
2.00000000e-03
2.00000000e-03
2.00000000e-03
2.00000000e-03
2.00000000e-03
2.00000000e-03
2.00000000e-03
2.00000000e-03
2.00000000e-03
2.00000000e-03
2.00000000e-03
2.00000000e-03
2.00000000e-03
2.00000000e-03
2.00000000e-03
2.00000000e-03
2.00000000e-03
2.00000000e-03
2.00000000e-03
2.00000000e-03
2.00000000e-03
2.00000000e-03
2.00000000e-03
2.00000000e-03
2.00000000e-03
2.00000000e-03
2.00000000e-03
2.00000000e-03
2.00000000e-03
2.00000000e-03
2.00000000e-03
2.00000000e-03
2.00000000e-03
2.00000000e-03
2.00000000e-03
2.00000000e-03
2.00000000e-03
2.00000000e-03
2.00000000e-03
2.00000000e-03
2.00000000e-03
2.00000000e-03
2.00000000e-03
2.00000000e-03
2.00000000e-03
2.00000000e-03
2.00000000e-03
2.00000000e-03
2.00000000e-03
2.00000000e-03
2.00000000e-03
2.00000000e-03
2.00000000e-03
2.00000000e-03
2.00000000e-03
2.00000000e-03
2.00000000e-03
2.00000000e-03
2.00000000e-03
2.00000000e-03
2.00000000e-03
2.00000000e-03
2.00000000e-03
2.00000000e-03
2.00000000e-03
2.00000000e-03
2.00000000e-03
2.00000000e-03
2.00000000e-03
2.00000000e-03
2.00000000e-03
2.00000000e-03
2.00000000e-03
2.00000000e-03
2.00000000e-03
2.00000000e-03
2.00000000e-03
2.00000000e-03
2.00000000e-03
2.00000000e-03
2.00000000e-03
2.00000000e-03
