# vtk DataFile Version 2.0
Particle data
ASCII
DATASET POLYDATA
POINTS 469 double
3.05051685e-02	1.78716930e-02	9.11192366e-03
3.05664634e-02	6.35383055e-03	1.44740209e-02
2.94961141e-02	-3.92872592e-03	6.38723269e-03
7.26409123e-03	-3.24561520e-02	1.04549076e-02
2.17407779e-02	-4.68718638e-03	2.33207852e-03
3.19751611e-02	2.39151718e-02	3.59060326e-03
3.06694553e-02	1.40102116e-02	1.11712635e-02
1.12972157e-02	-2.74067838e-02	1.80271772e-02
3.59933623e-02	-2.85830514e-03	1.80949147e-02
1.91768370e-02	-3.36867094e-02	1.81569133e-02
1.90542508e-02	6.02837285e-03	1.47051099e-02
2.97070312e-02	8.38509823e-03	1.79249104e-02
3.72902374e-02	-1.42043254e-02	1.18010598e-02
2.68342625e-02	-2.36172858e-03	3.36627340e-03
2.66482879e-02	1.48153251e-02	1.44985495e-02
1.33390050e-02	-3.86486308e-02	9.96716877e-03
1.42271029e-02	-2.29084843e-02	6.85594551e-03
3.44050734e-02	3.52366960e-03	1.91760314e-03
1.16881143e-02	-2.64244970e-02	1.35510743e-02
1.22434661e-02	-5.93186892e-03	1.11299484e-02
7.94763361e-03	-9.97003456e-03	2.16017944e-03
3.54812305e-02	-7.17644770e-03	1.75430253e-02
5.51357713e-03	-3.83894677e-02	2.25039932e-03
1.87635349e-02	-1.18377034e-02	2.17082680e-03
2.53408979e-02	-5.72963633e-03	2.15448948e-03
2.06598256e-02	-2.88109217e-02	8.54641652e-03
-1.00088476e-02	-3.54923488e-02	1.49388530e-02
3.62646085e-02	-3.14059895e-04	1.36212315e-02
5.05163231e-05	-3.58063988e-02	1.01231200e-02
1.46047788e-02	-2.40062581e-02	1.46553290e-02
3.20346643e-02	-1.63077494e-03	1.06609442e-02
3.85801169e-02	6.60168285e-03	2.13660401e-03
3.32767127e-02	5.06931113e-03	5.74255324e-03
2.75079816e-02	-9.80478724e-03	1.80338496e-02
2.98083954e-02	-2.61606313e-02	1.10794449e-02
3.33113805e-02	-3.47025275e-03	1.11990538e-02
3.23052618e-02	2.21400781e-02	6.17476711e-03
-6.65089878e-03	-3.81308742e-02	1.00531211e-02
3.01935734e-02	8.51667145e-03	1.01483346e-02
2.00337789e-02	-5.68598098e-03	2.25321497e-03
-3.04278248e-03	-3.54810219e-02	1.16250659e-02
3.84408711e-02	7.71045037e-03	1.48808795e-02
2.89696689e-02	-2.61612353e-02	2.24762979e-03
1.56109178e-02	-1.12699384e-02	1.78928774e-02
2.26686513e-02	-1.93801811e-02	1.64798019e-02
1.48681125e-03	-2.04534458e-02	1.30180444e-02
1.47826720e-02	-1.60884142e-02	1.06557433e-02
-5.89514002e-03	-3.09475430e-02	1.40599684e-02
7.78828531e-03	-2.64862166e-02	1.12579429e-02
1.49832485e-02	-3.15802954e-03	1.69042319e-02
1.22076022e-02	-2.62045353e-02	2.74180616e-03
9.40037189e-03	-2.27726404e-02	9.60483009e-03
-1.01896562e-02	-3.65990407e-02	1.13048853e-02
1.37018813e-02	-2.24468876e-02	2.55216284e-03
1.59222342e-02	-3.39998090e-02	1.05807213e-02
4.56274077e-03	-3.42887473e-02	1.52903394e-02
1.79893740e-02	-3.62487642e-02	9.06736143e-03
2.88649416e-03	-1.85707648e-02	1.40418675e-02
2.99261127e-02	-2.08046755e-02	1.45391254e-02
2.34735619e-02	-2.24259477e-02	1.53467786e-02
3.07567684e-02	-1.89504248e-02	1.79974758e-02
2.75289973e-02	-1.31418669e-02	1.07993868e-02
2.00551835e-02	-1.09328032e-02	1.85154409e-02
5.92734902e-03	-3.77362205e-02	9.52480333e-03
3.31616967e-02	-5.78719036e-03	4.66770006e-03
1.24115721e-02	-3.75566606e-03	1.27224275e-02
2.51151659e-02	-3.06460931e-02	3.31690436e-03
3.11261262e-02	3.34801397e-03	1.82744446e-02
2.50387623e-02	-2.72718024e-02	6.24831568e-03
3.73468033e-02	-1.46737229e-02	9.78723024e-03
4.18679979e-04	-3.00798339e-02	5.48144711e-03
3.64145558e-02	-6.63457401e-03	2.51568828e-03
2.28323282e-02	9.22234572e-03	1.76081437e-02
-1.78672119e-02	-3.11689644e-02	9.75578847e-03
3.76419260e-02	1.26772196e-02	6.18220144e-03
-2.26877473e-03	-3.33403747e-02	1.79810457e-02
1.13750861e-02	-2.56840114e-02	7.11501745e-03
2.76227102e-02	1.11569337e-02	1.05484431e-02
3.58942116e-02	-1.78054721e-02	1.81129341e-02
1.25712930e-02	-3.78224056e-02	1.80225797e-02
2.17756366e-03	-2.31096541e-02	1.03487805e-02
2.90964817e-02	-1.06951130e-02	6.87772220e-03
2.67202132e-02	-1.43851000e-02	2.01652480e-03
2.41714465e-02	-1.50387017e-02	1.79147874e-02
2.83645925e-02	-1.71521911e-02	2.47648091e-03
4.34491654e-04	-1.11031277e-02	1.89837972e-03
3.52433244e-02	8.79357221e-03	1.44281703e-02
8.93182453e-03	-3.95586531e-02	1.10336005e-02
3.30673080e-02	-1.53304024e-02	6.42391313e-03
2.04720853e-02	-2.76804000e-02	4.10248429e-03
-1.04038991e-02	-3.06541538e-02	9.49415255e-03
2.44667977e-02	1.01581161e-02	3.21117315e-03
3.65197727e-02	-5.01185056e-03	6.38590801e-03
-1.28376748e-02	-3.51244996e-02	2.66087220e-03
3.09140320e-02	1.03553328e-03	6.72501649e-03
3.91493742e-02	-3.44085233e-03	8.33845711e-03
6.36654688e-03	-3.96367716e-02	5.89252469e-03
2.27868947e-02	-2.81969165e-02	1.33436317e-02
2.47485758e-02	-7.66686896e-03	1.83623973e-02
2.67549329e-02	-1.66399604e-03	7.60359729e-03
1.90863751e-02	-2.59394918e-02	7.43734317e-03
2.05070565e-02	-2.57665580e-02	1.13054606e-02
-1.14717872e-03	-3.54906985e-02	1.59868429e-02
3.68102698e-02	-1.40393454e-02	1.67607809e-02
2.32208746e-02	-2.40234349e-02	7.28455031e-03
-5.88513740e-03	-2.62831636e-02	4.63623673e-03
1.73781477e-02	-1.88373557e-02	6.57256821e-03
1.70537358e-02	-2.44248564e-02	5.04809475e-03
2.11547260e-02	-3.03688990e-02	1.50907534e-03
2.46868222e-02	5.28312442e-03	4.63652476e-03
1.48314785e-02	-3.63100175e-02	2.10194810e-03
4.04093676e-03	-1.39838394e-02	1.72324347e-02
8.82857840e-04	-2.44369272e-02	1.73330596e-02
9.04623276e-03	-3.33412935e-02	2.16164238e-03
3.02316509e-02	-1.32910206e-02	1.40424859e-02
2.52849248e-02	-2.16244109e-02	2.00629248e-03
-1.81402671e-02	-3.42611000e-02	1.58804479e-02
1.74186522e-02	-3.63855324e-02	4.95834724e-03
2.91241415e-02	3.93538753e-04	1.01175293e-02
3.88194843e-02	9.35064158e-03	8.15539840e-03
1.80923326e-02	3.45667192e-03	1.93416192e-03
2.01799235e-02	-1.37630712e-02	1.31854671e-02
1.49954168e-02	1.92508342e-03	1.31128491e-02
3.56660249e-02	-1.78274364e-02	5.83419555e-03
3.81381646e-02	-9.37239131e-03	1.82582915e-02
4.54412959e-03	-1.08352441e-02	8.43115293e-03
3.51240467e-02	1.84250161e-02	6.54886218e-03
3.08409572e-02	1.05019779e-02	7.29206181e-03
4.56492551e-03	-3.56046346e-02	1.13740332e-02
8.68929938e-04	-2.93457065e-02	1.95484963e-03
5.14580829e-03	-3.18664004e-02	2.37180079e-03
3.86404902e-02	-8.32307337e-03	4.38033468e-03
9.75721041e-03	-1.13604934e-02	1.75737266e-02
3.53247053e-02	4.72352792e-03	1.36191379e-02
1.47926925e-02	-1.57169569e-02	6.07395193e-03
3.31076956e-02	-2.23837532e-02	1.38306180e-02
3.12000143e-02	-1.80281869e-04	4.13874567e-03
3.06255126e-02	1.99746107e-02	1.90885251e-03
1.79961144e-02	-1.88744267e-02	1.14487491e-02
8.12225262e-03	-2.83385844e-02	1.65057298e-02
2.85447637e-02	-1.77938149e-02	1.52988812e-02
1.00457177e-02	-3.48808286e-03	5.76935737e-03
1.21579699e-02	-1.21098886e-02	1.38673319e-02
-1.07361782e-02	-3.83526602e-02	2.36598153e-03
2.78050600e-02	1.47691940e-02	8.56876126e-03
1.23231225e-02	-2.55108597e-03	2.11408185e-03
8.53931118e-03	-4.01933440e-02	1.87262969e-03
2.62070129e-02	1.70598423e-02	2.15992847e-03
2.06678163e-02	-1.26037585e-02	8.30539784e-03
1.92578123e-02	-2.65242583e-02	1.53348824e-02
1.82216384e-02	-7.97684987e-03	9.78981887e-03
2.16948970e-02	-1.85256548e-02	8.64346147e-03
3.64256826e-02	1.79851239e-02	1.19599070e-02
-5.03645663e-03	-2.45282529e-02	1.48056159e-02
8.71642972e-03	-3.00070870e-02	8.74019306e-03
9.00713141e-03	-3.45327753e-02	1.38622120e-02
3.61788323e-02	1.62188038e-02	3.57977036e-03
2.09012395e-02	-7.53521710e-03	5.26401510e-03
3.52562695e-02	-1.69790258e-02	1.44476610e-02
2.33758746e-02	3.44458132e-03	2.21177306e-03
3.52103469e-02	-8.04874248e-04	7.52804668e-03
3.43293203e-02	1.92880257e-02	1.87331142e-03
3.26878857e-02	-1.97459046e-02	9.10412354e-03
1.40106658e-03	-3.42198704e-02	1.82504750e-02
2.39335780e-02	-1.14133217e-02	2.21395232e-03
2.83009606e-02	5.74864225e-03	1.27396980e-02
5.83109121e-03	-3.06105095e-02	5.76754378e-03
1.74785918e-02	6.98119038e-03	4.80678681e-03
5.21996037e-03	-3.80051839e-02	1.78739746e-02
1.09585022e-02	-3.88693935e-02	5.96830482e-03
3.34183989e-02	2.00083453e-02	9.57680773e-03
2.58518424e-02	-2.61264231e-02	1.05598889e-02
-3.18707897e-03	-2.80800215e-02	1.70846841e-02
3.16538012e-02	1.19052844e-02	1.49209645e-02
2.32173454e-02	7.73187090e-03	5.22712989e-03
3.33700370e-02	1.39880066e-02	1.19850147e-02
3.90232807e-02	4.79662298e-03	1.80022210e-03
3.40702694e-02	-1.16037237e-02	1.76663560e-02
3.71009647e-02	1.32045955e-02	1.80473309e-02
2.45020100e-02	-1.35880760e-02	7.19692645e-03
2.96355730e-04	-3.51394314e-02	4.92101167e-03
2.94435727e-02	-1.48345175e-02	5.21309853e-03
2.16913614e-02	3.03245840e-03	1.68370637e-02
-3.35654080e-04	-3.92691986e-02	1.33333657e-02
2.87051165e-02	-7.45027570e-03	1.16445447e-02
3.71415697e-02	1.42133872e-02	9.63437327e-03
2.04800636e-02	2.07063312e-03	9.74240725e-03
3.91170426e-02	1.74308364e-03	1.46907657e-02
1.97041424e-02	-5.65722315e-03	1.74367160e-02
3.75030879e-02	1.11306318e-02	1.17261751e-03
1.29890601e-02	-3.64894695e-02	1.49492506e-02
2.57505874e-02	-1.30582805e-02	1.45171735e-02
7.09680088e-03	-3.84179854e-02	1.57983794e-02
-1.07785313e-02	-3.89249970e-02	1.73352070e-02
2.48507357e-02	-5.97960349e-03	5.70100818e-03
5.77465046e-03	-3.12502868e-02	1.38601495e-02
3.21645150e-02	-1.07761385e-02	1.06013066e-02
1.51904191e-02	-2.56731996e-02	9.03367091e-03
9.17730910e-03	-1.76385302e-02	7.69725641e-03
2.17029102e-02	-2.81642054e-02	1.81666702e-02
-9.36939722e-03	-2.90528198e-02	1.46018146e-02
-1.11462689e-03	-2.44073058e-02	1.33697840e-02
8.24375351e-03	-3.96641045e-02	1.79701406e-02
3.78554549e-02	-9.55314625e-03	1.14355059e-02
1.87610513e-02	-3.30668887e-02	1.46892714e-02
6.03729572e-04	-2.67708876e-02	7.92496201e-03
-1.51170405e-03	-3.34447320e-02	1.31750719e-02
-3.03730438e-03	-3.40708261e-02	6.49476385e-03
3.16057422e-02	-2.77978061e-03	1.43401293e-02
1.81004116e-03	-3.10565370e-02	1.14780788e-02
3.06265650e-02	-2.54419009e-02	1.47892252e-02
2.00286256e-02	-2.38607581e-02	2.13365461e-03
2.71228271e-02	-2.48809039e-02	1.39337638e-02
2.58954110e-02	-2.01930410e-02	1.40311553e-02
3.30288716e-02	9.88818192e-04	1.50078002e-02
2.99010990e-02	-4.06685774e-03	2.03130774e-03
[...]
POINT_DATA 469
SCALARS Radius double 1
LOOKUP_TABLE default
2.00000000e-03
2.00000000e-03
2.00000000e-03
2.00000000e-03
2.00000000e-03
2.00000000e-03
2.00000000e-03
2.00000000e-03
2.00000000e-03
2.00000000e-03
2.00000000e-03
2.00000000e-03
2.00000000e-03
2.00000000e-03
2.00000000e-03
2.00000000e-03
2.00000000e-03
2.00000000e-03
2.00000000e-03
2.00000000e-03
2.00000000e-03
2.00000000e-03
2.00000000e-03
2.00000000e-03
2.00000000e-03
2.00000000e-03
2.00000000e-03
2.00000000e-03
2.00000000e-03
2.00000000e-03
2.00000000e-03
2.00000000e-03
2.00000000e-03
2.00000000e-03
2.00000000e-03
2.00000000e-03
2.00000000e-03
2.00000000e-03
2.00000000e-03
2.00000000e-03
2.00000000e-03
2.00000000e-03
2.00000000e-03
2.00000000e-03
2.00000000e-03
2.00000000e-03
2.00000000e-03
2.00000000e-03
2.00000000e-03
2.00000000e-03
2.00000000e-03
2.00000000e-03
2.00000000e-03
2.00000000e-03
2.00000000e-03
2.00000000e-03
2.00000000e-03
2.00000000e-03
2.00000000e-03
2.00000000e-03
2.00000000e-03
2.00000000e-03
2.00000000e-03
2.00000000e-03
2.00000000e-03
2.00000000e-03
2.00000000e-03
2.00000000e-03
2.00000000e-03
2.00000000e-03
2.00000000e-03
2.00000000e-03
2.00000000e-03
2.00000000e-03
2.00000000e-03
2.00000000e-03
2.00000000e-03
2.00000000e-03
2.00000000e-03
2.00000000e-03
2.00000000e-03
2.00000000e-03
2.00000000e-03
2.00000000e-03
2.00000000e-03
2.00000000e-03
2.00000000e-03
2.00000000e-03
2.00000000e-03
2.00000000e-03
2.00000000e-03
2.00000000e-03
2.00000000e-03
2.00000000e-03
2.00000000e-03
2.00000000e-03
2.00000000e-03
2.00000000e-03
2.00000000e-03
2.00000000e-03
2.00000000e-03
2.00000000e-03
2.00000000e-03
2.00000000e-03
2.00000000e-03
2.00000000e-03
2.00000000e-03
2.00000000e-03
2.00000000e-03
2.00000000e-03
2.00000000e-03
2.00000000e-03
2.00000000e-03
2.00000000e-03
2.00000000e-03
2.00000000e-03
2.00000000e-03
2.00000000e-03
2.00000000e-03
2.00000000e-03
2.00000000e-03
2.00000000e-03
2.00000000e-03
2.00000000e-03
2.00000000e-03
2.00000000e-03
2.00000000e-03
2.00000000e-03
2.00000000e-03
2.00000000e-03
2.00000000e-03
2.00000000e-03
2.00000000e-03
2.00000000e-03
2.00000000e-03
2.00000000e-03
2.00000000e-03
2.00000000e-03
2.00000000e-03
2.00000000e-03
2.00000000e-03
2.00000000e-03
2.00000000e-03
2.00000000e-03
2.00000000e-03
2.00000000e-03
2.00000000e-03
2.00000000e-03
2.00000000e-03
2.00000000e-03
2.00000000e-03
2.00000000e-03
2.00000000e-03
2.00000000e-03
2.00000000e-03
2.00000000e-03
2.00000000e-03
2.00000000e-03
2.00000000e-03
2.00000000e-03
2.00000000e-03
2.00000000e-03
2.00000000e-03
2.00000000e-03
2.00000000e-03
2.00000000e-03
2.00000000e-03
2.00000000e-03
2.00000000e-03
2.00000000e-03
2.00000000e-03
2.00000000e-03
2.00000000e-03
2.00000000e-03
2.00000000e-03
2.00000000e-03
2.00000000e-03
2.00000000e-03
2.00000000e-03
2.00000000e-03
2.00000000e-03
2.00000000e-03
2.00000000e-03
2.00000000e-03
2.00000000e-03
2.00000000e-03
2.00000000e-03
2.00000000e-03
2.00000000e-03
2.00000000e-03
2.00000000e-03
2.00000000e-03
2.00000000e-03
2.00000000e-03
2.00000000e-03
2.00000000e-03
2.00000000e-03
2.00000000e-03
2.00000000e-03
2.00000000e-03
2.00000000e-03
2.00000000e-03
2.00000000e-03
2.00000000e-03
2.00000000e-03
2.00000000e-03
2.00000000e-03
2.00000000e-03
2.00000000e-03
2.00000000e-03
2.00000000e-03
2.00000000e-03
2.00000000e-03
2.00000000e-03
2.00000000e-03
2.00000000e-03
2.00000000e-03
2.00000000e-03
2.00000000e-03
2.00000000e-03
2.00000000e-03
2.00000000e-03
2.00000000e-03
2.00000000e-03
2.00000000e-03
2.00000000e-03
2.00000000e-03
2.00000000e-03
2.00000000e-03
2.00000000e-03
2.00000000e-03
2.00000000e-03
2.00000000e-03
2.00000000e-03
2.00000000e-03
2.00000000e-03
2.00000000e-03
2.00000000e-03
2.00000000e-03
2.00000000e-03
2.00000000e-03
2.00000000e-03
2.00000000e-03
2.00000000e-03
2.00000000e-03
2.00000000e-03
2.00000000e-03
2.00000000e-03
2.00000000e-03
2.00000000e-03
2.00000000e-03
2.00000000e-03
2.00000000e-03
2.00000000e-03
2.00000000e-03
2.00000000e-03
2.00000000e-03
2.00000000e-03
2.00000000e-03
2.00000000e-03
2.00000000e-03
2.00000000e-03
2.00000000e-03
2.00000000e-03
2.00000000e-03
2.00000000e-03
2.00000000e-03
2.00000000e-03
2.00000000e-03
2.00000000e-03
2.00000000e-03
2.00000000e-03
2.00000000e-03
2.00000000e-03
2.00000000e-03
2.00000000e-03
2.00000000e-03
2.00000000e-03
2.00000000e-03
2.00000000e-03
2.00000000e-03
2.00000000e-03
2.00000000e-03
2.00000000e-03
2.00000000e-03
2.00000000e-03
2.00000000e-03
2.00000000e-03
2.00000000e-03
2.00000000e-03
2.00000000e-03
2.00000000e-03
2.00000000e-03
2.00000000e-03
2.00000000e-03
2.00000000e-03
2.00000000e-03
2.00000000e-03
2.00000000e-03
2.00000000e-03
2.00000000e-03
2.00000000e-03
2.00000000e-03
2.00000000e-03
2.00000000e-03
2.00000000e-03
2.00000000e-03
2.00000000e-03
2.00000000e-03
2.00000000e-03
2.00000000e-03
2.00000000e-03
2.00000000e-03
2.00000000e-03
2.00000000e-03
2.00000000e-03
2.00000000e-03
2.00000000e-03
2.00000000e-03
2.00000000e-03
2.00000000e-03
2.00000000e-03
2.00000000e-03
2.00000000e-03
2.00000000e-03
2.00000000e-03
2.00000000e-03
2.00000000e-03
2.00000000e-03
2.00000000e-03
2.00000000e-03
2.00000000e-03
2.00000000e-03
2.00000000e-03
2.00000000e-03
2.00000000e-03
2.00000000e-03
2.00000000e-03
2.00000000e-03
2.00000000e-03
2.00000000e-03
2.00000000e-03
2.00000000e-03
2.00000000e-03
2.00000000e-03
2.00000000e-03
2.00000000e-03
2.00000000e-03
2.00000000e-03
2.00000000e-03
2.00000000e-03
2.00000000e-03
2.00000000e-03
2.00000000e-03
2.00000000e-03
2.00000000e-03
2.00000000e-03
2.00000000e-03
2.00000000e-03
2.00000000e-03
2.00000000e-03
2.00000000e-03
2.00000000e-03
2.00000000e-03
2.00000000e-03
2.00000000e-03
2.00000000e-03
2.00000000e-03
2.00000000e-03
2.00000000e-03
2.00000000e-03
2.00000000e-03
2.00000000e-03
2.00000000e-03
2.00000000e-03
2.00000000e-03
2.00000000e-03
2.00000000e-03
2.00000000e-03
2.00000000e-03
2.00000000e-03
2.00000000e-03
2.00000000e-03
2.00000000e-03
2.00000000e-03
2.00000000e-03
2.00000000e-03
2.00000000e-03
2.00000000e-03
2.00000000e-03
2.00000000e-03
2.00000000e-03
2.00000000e-03
2.00000000e-03
2.00000000e-03
2.00000000e-03
2.00000000e-03
2.00000000e-03
2.00000000e-03
2.00000000e-03
2.00000000e-03
2.00000000e-03
2.00000000e-03
2.00000000e-03
2.00000000e-03
2.00000000e-03
2.00000000e-03
2.00000000e-03
2.00000000e-03
2.00000000e-03
2.00000000e-03
2.00000000e-03
2.00000000e-03
2.00000000e-03
2.00000000e-03
2.00000000e-03
2.00000000e-03
2.00000000e-03
2.00000000e-03
2.00000000e-03
2.00000000e-03
2.00000000e-03
2.00000000e-03
2.00000000e-03
2.00000000e-03
2.00000000e-03
2.00000000e-03
2.00000000e-03
2.00000000e-03
2.00000000e-03
2.00000000e-03
2.00000000e-03
2.00000000e-03
2.00000000e-03
2.00000000e-03
2.00000000e-03
2.00000000e-03
2.00000000e-03
2.00000000e-03
2.00000000e-03
2.00000000e-03
2.00000000e-03
2.00000000e-03
2.00000000e-03
2.00000000e-03
2.00000000e-03
2.00000000e-03
2.00000000e-03
2.00000000e-03
2.00000000e-03
2.00000000e-03
2.00000000e-03
2.00000000e-03
2.00000000e-03
2.00000000e-03
2.00000000e-03
2.00000000e-03
2.00000000e-03
2.00000000e-03
2.00000000e-03
2.00000000e-03
2.00000000e-03
2.00000000e-03
2.00000000e-03
2.00000000e-03
2.00000000e-03
2.00000000e-03
2.00000000e-03
2.00000000e-03
