# vtk DataFile Version 2.0
Particle data
ASCII
DATASET POLYDATA
POINTS 469 double
2.32375777e-02	1.63088506e-02	8.21803517e-03
2.81663875e-02	1.13606412e-02	1.48634904e-02
2.90996919e-02	4.22977509e-04	6.13280375e-03
1.22984906e-02	-3.34028058e-02	1.07023049e-02
2.15376574e-02	-1.65218245e-03	2.22612096e-03
2.50152115e-02	2.15597266e-02	3.71598664e-03
2.73052179e-02	1.56504457e-02	1.21632642e-02
1.58216916e-02	-2.58881680e-02	1.79276429e-02
3.59474514e-02	4.54732502e-03	1.79605233e-02
2.51420269e-02	-2.88253381e-02	1.80134976e-02
8.16827210e-03	-1.37165660e-02	8.69506777e-03
2.73126017e-02	1.31997299e-02	1.81065501e-02
3.86434782e-02	-7.52590061e-03	1.13922503e-02
2.58587362e-02	1.42992269e-03	3.21926362e-03
1.47275367e-02	-2.03260123e-03	1.34863114e-02
2.03837499e-02	-3.55469248e-02	1.02714471e-02
1.74332631e-02	-2.21072724e-02	6.54204188e-03
3.39072822e-02	1.06214335e-02	2.10127953e-03
1.56936865e-02	-2.53120202e-02	1.40247276e-02
8.72139367e-04	-2.19436413e-02	9.87561155e-03
-7.97828534e-04	-2.58458945e-02	2.20393347e-03
3.60501795e-02	-3.82625039e-04	1.75159341e-02
1.29098190e-02	-3.79348702e-02	2.12938380e-03
2.04358280e-02	-8.80274761e-03	2.24409583e-03
2.52175216e-02	-1.69828287e-03	2.22539633e-03
2.52932140e-02	-2.46866111e-02	8.13726331e-03
-6.98943382e-03	-3.80518676e-02	1.54964018e-02
3.62092772e-02	6.71156255e-03	1.32785126e-02
5.27476221e-03	-3.85749614e-02	1.01772154e-02
1.82911395e-02	-2.05798284e-02	1.45639358e-02
3.28180854e-02	6.13471927e-03	1.09346901e-02
3.67489506e-02	1.39424665e-02	2.27257752e-03
3.24929358e-02	1.36653910e-02	5.23027674e-03
2.87403189e-02	-4.69029081e-03	1.80804749e-02
3.42235371e-02	-2.03822702e-02	1.14377644e-02
3.28344680e-02	6.69065170e-04	1.08124570e-02
2.22669529e-02	1.87276424e-02	6.16505278e-03
4.37199998e-04	-3.92561844e-02	9.87105472e-03
2.75333746e-02	1.25172660e-02	1.05447890e-02
1.91317117e-02	-3.51186910e-03	2.29741101e-03
3.13761419e-03	-3.72128376e-02	1.12511859e-02
3.68709805e-02	1.50983648e-02	1.50553052e-02
3.44946060e-02	-1.89335440e-02	2.20934961e-03
1.18121985e-02	-1.46216329e-02	1.78404661e-02
2.55856001e-02	-1.52644942e-02	1.63098137e-02
-4.07518535e-03	-2.94794161e-02	1.10330296e-02
1.44886780e-02	-1.75006769e-02	1.09409039e-02
-4.95975920e-03	-3.59623063e-02	1.41478858e-02
1.09878344e-02	-2.63480849e-02	1.07833363e-02
1.74880644e-03	-1.73057530e-02	1.71584242e-02
1.59636821e-02	-2.40173509e-02	2.48967896e-03
1.18452391e-02	-2.25710480e-02	9.76145767e-03
-3.63725404e-03	-4.03016781e-02	1.17352723e-02
1.64091006e-02	-2.01330031e-02	2.85286474e-03
2.25441268e-02	-2.86697036e-02	1.08547815e-02
9.42504163e-03	-3.50380200e-02	1.55482540e-02
2.38178265e-02	-3.17828866e-02	8.73445835e-03
-2.33437989e-03	-2.71790330e-02	1.55857253e-02
3.28353327e-02	-1.49300258e-02	1.46272745e-02
2.78168058e-02	-1.68878951e-02	1.51364105e-02
3.49956025e-02	-1.19098721e-02	1.82010569e-02
2.85493383e-02	-9.15990800e-03	1.06380069e-02
1.64261602e-02	-1.41023987e-02	1.84974584e-02
1.15676763e-02	-3.74886757e-02	9.22548267e-03
3.21242470e-02	-1.79491822e-03	4.46044196e-03
2.84349197e-03	-2.20193705e-02	1.03832196e-02
3.17793309e-02	-2.28669148e-02	3.21164998e-03
3.05108152e-02	1.13637047e-02	1.82262234e-02
2.93510179e-02	-2.28436556e-02	6.17158313e-03
3.95136134e-02	-8.34093906e-03	9.71471438e-03
4.62654129e-03	-3.25642427e-02	5.91754903e-03
3.67762610e-02	2.42028362e-04	2.44640207e-03
4.75229106e-03	-9.12866789e-03	1.68419305e-02
-1.80251473e-02	-3.26100156e-02	1.06676996e-02
3.49367129e-02	2.01768316e-02	5.52178481e-03
2.31467911e-03	-3.43633579e-02	1.76444695e-02
1.46791057e-02	-2.36541838e-02	7.06779207e-03
2.31167308e-02	1.24460794e-02	1.22918235e-02
3.73899527e-02	-1.08457308e-02	1.78366594e-02
1.87684529e-02	-3.66119060e-02	1.82405510e-02
1.75000111e-04	-2.89414799e-02	1.02527749e-02
2.93613188e-02	-7.00309912e-03	7.13169411e-03
2.87067828e-02	-9.17493547e-03	1.95867913e-03
2.61490250e-02	-1.06993917e-02	1.80165528e-02
3.11732055e-02	-1.24092965e-02	2.19224311e-03
-1.05363200e-02	-3.00726073e-02	1.78506687e-03
3.29098765e-02	1.62249900e-02	1.37744903e-02
1.54911625e-02	-3.73323609e-02	1.11234289e-02
3.60830518e-02	-8.40494330e-03	6.48947415e-03
2.56234203e-02	-2.23386408e-02	4.53984542e-03
-1.09522582e-02	-3.79029508e-02	1.02095488e-02
1.76799203e-02	3.86712077e-03	5.75058266e-03
3.62738534e-02	1.16507001e-03	6.28137666e-03
-8.06272456e-03	-3.87057574e-02	2.54258583e-03
2.91037690e-02	6.42762753e-03	7.16586589e-03
3.94138824e-02	3.90088124e-03	8.36610145e-03
1.27808340e-02	-3.87385123e-02	6.22571951e-03
2.78860732e-02	-2.32825434e-02	1.29145268e-02
2.52334984e-02	-4.09575929e-03	1.81680779e-02
2.64985560e-02	3.14985607e-03	8.23174955e-03
2.38233472e-02	-2.23354140e-02	7.60650031e-03
2.48152477e-02	-2.08381547e-02	1.08370974e-02
3.58052210e-03	-3.80660359e-02	1.61467817e-02
3.84762179e-02	-6.83525570e-03	1.71055511e-02
2.68405422e-02	-2.00192291e-02	7.63480675e-03
-1.11139083e-02	-3.42821961e-02	7.41160323e-03
2.01164129e-02	-1.59087319e-02	6.35747376e-03
2.10351741e-02	-2.03590228e-02	4.51690102e-03
2.74254677e-02	-2.37340456e-02	1.51768748e-03
2.11124276e-02	1.69884171e-03	5.25285720e-03
2.21053737e-02	-3.07783035e-02	1.97416264e-03
-4.16787081e-03	-2.80750014e-02	1.78791077e-02
6.01671696e-04	-2.97082504e-02	1.70776718e-02
1.48226932e-02	-3.10582739e-02	2.06241147e-03
3.26075419e-02	-7.01456022e-03	1.42807983e-02
2.84664930e-02	-1.72685027e-02	1.96279388e-03
-1.26827366e-02	-3.83502806e-02	1.50405447e-02
2.35617517e-02	-3.27786727e-02	4.48714583e-03
2.87782689e-02	7.00655961e-03	1.12775363e-02
3.71877390e-02	1.64725273e-02	8.19328617e-03
9.10869947e-03	-1.10413621e-02	1.91656380e-03
2.09425588e-02	-1.48600745e-02	1.35778471e-02
-4.04577760e-03	-2.02092579e-02	1.09316680e-02
3.81381859e-02	-1.35164776e-02	6.03276801e-03
3.88022275e-02	-2.84400138e-03	1.82560820e-02
-8.65632532e-03	-2.98700448e-02	1.08162150e-02
3.19757189e-02	2.43717775e-02	7.05862388e-03
2.93377277e-02	1.73538161e-02	9.01072108e-03
9.66258944e-03	-3.53180710e-02	1.13261136e-02
3.14007928e-03	-3.01257867e-02	1.95178689e-03
9.64679809e-03	-3.19139444e-02	2.51758144e-03
3.95464273e-02	-1.53551361e-03	4.30406097e-03
4.19985038e-03	-1.91487168e-02	1.76659838e-02
3.54806670e-02	1.37977505e-02	1.31735993e-02
1.47136051e-02	-1.64695685e-02	5.11474955e-03
3.74392754e-02	-1.44381462e-02	1.33194038e-02
3.04455222e-02	5.82502171e-03	4.05038587e-03
2.36736031e-02	1.72796406e-02	1.63036491e-03
2.05888018e-02	-1.64358174e-02	1.12871223e-02
1.28263002e-02	-2.65357228e-02	1.59387941e-02
3.22630341e-02	-1.02898840e-02	1.51773177e-02
-4.09623899e-03	-2.24579406e-02	6.50711981e-03
8.19571730e-03	-2.16020988e-02	1.46348096e-02
-4.33749260e-03	-4.05011371e-02	2.45770060e-03
2.19302561e-02	1.03908244e-02	7.88760894e-03
4.68064343e-04	-2.06079521e-02	2.71385149e-03
1.65754412e-02	-3.69885960e-02	1.98757382e-03
2.19568445e-02	1.25575015e-02	2.27179080e-03
2.18794341e-02	-9.09338295e-03	8.78199123e-03
2.45733305e-02	-2.23437682e-02	1.51625001e-02
1.42987315e-02	-1.42841201e-02	1.31183132e-02
2.46746257e-02	-1.46860809e-02	9.14126705e-03
3.25991763e-02	2.50778888e-02	1.17453617e-02
-6.46099734e-03	-3.21512756e-02	1.23929935e-02
1.29657280e-02	-2.86737401e-02	8.51662616e-03
1.42257244e-02	-3.30290466e-02	1.41565532e-02
3.23536086e-02	2.22935800e-02	3.28239176e-03
2.04932940e-02	-8.43908976e-03	5.60408573e-03
3.70378427e-02	-9.49036643e-03	1.47636745e-02
2.28966667e-02	6.21198440e-03	2.21015119e-03
3.54921645e-02	5.56829888e-03	7.67876775e-03
2.86187789e-02	2.35967232e-02	1.78197534e-03
3.67453954e-02	-1.16877832e-02	9.44077690e-03
6.43611366e-03	-3.67716281e-02	1.81360319e-02
2.49961418e-02	-6.40896411e-03	2.34918608e-03
2.52850450e-02	7.22244765e-03	1.32642126e-02
1.16758072e-02	-2.82120359e-02	5.65871328e-03
5.70940649e-03	-1.09966798e-02	3.71270674e-03
1.15787197e-02	-3.84744292e-02	1.78620023e-02
1.72043640e-02	-3.71472491e-02	6.45080196e-03
2.92401043e-02	2.29996606e-02	1.01350383e-02
2.97583929e-02	-2.17079970e-02	1.01527662e-02
-1.90358188e-03	-3.32534942e-02	1.77672318e-02
2.70707278e-02	1.56138466e-02	1.43932944e-02
1.14780749e-02	-7.31399498e-03	5.96084747e-03
3.04662411e-02	1.90613682e-02	1.17716770e-02
3.75189010e-02	1.10437466e-02	1.67748547e-03
3.50738485e-02	-4.63721618e-03	1.76640472e-02
3.43203608e-02	2.02780400e-02	1.81556162e-02
2.60731015e-02	-8.45246708e-03	7.29821056e-03
5.88314527e-03	-3.79818718e-02	4.87620325e-03
3.14061079e-02	-9.25201004e-03	5.20906195e-03
7.12736891e-03	-1.13410862e-02	1.43360169e-02
6.49549565e-03	-3.90829152e-02	1.37396440e-02
2.94619088e-02	-3.70070363e-03	1.21086092e-02
3.49527459e-02	2.29533306e-02	9.45520927e-03
1.18558012e-02	-1.30554207e-02	5.07396542e-03
3.86296512e-02	9.53905615e-03	1.48712965e-02
1.46318100e-02	-8.75827170e-03	1.72925679e-02
3.52869254e-02	1.87474858e-02	1.75047260e-03
1.96666769e-02	-3.21011023e-02	1.54643474e-02
2.82025778e-02	-8.31620562e-03	1.44529062e-02
1.44386844e-02	-3.73281086e-02	1.53918174e-02
-5.53071725e-03	-4.12078826e-02	1.75081376e-02
2.57339545e-02	-1.73889282e-03	5.89741616e-03
1.11747762e-02	-3.01854131e-02	1.39106488e-02
3.37058536e-02	-4.68043627e-03	1.07021717e-02
1.89020639e-02	-2.37823076e-02	9.35639266e-03
8.49679273e-03	-2.53854241e-02	6.83098165e-03
2.71022663e-02	-2.42862520e-02	1.81407205e-02
-8.78450469e-03	-3.50257596e-02	1.51354351e-02
-1.70625379e-03	-3.10098106e-02	1.36612888e-02
1.54079794e-02	-3.81323507e-02	1.80826383e-02
3.87337576e-02	-2.26416938e-03	1.12322568e-02
2.56370346e-02	-2.69165705e-02	1.45966514e-02
7.57920110e-04	-3.22030371e-02	8.16920228e-03
3.70922542e-03	-3.50146407e-02	1.33729969e-02
2.44030633e-03	-3.53955004e-02	6.30491101e-03
3.24907371e-02	4.92012879e-03	1.43555585e-02
6.77677702e-03	-3.20081717e-02	1.15421825e-02
3.56778986e-02	-1.75243167e-02	1.50643009e-02
2.38368093e-02	-1.96257462e-02	2.09862257e-03
3.15383376e-02	-1.97597333e-02	1.37053520e-02
2.90922345e-02	-1.49920195e-02	1.39491008e-02
3.37499218e-02	1.05424150e-02	1.44789997e-02
2.94634385e-02	-5.96680684e-04	2.00116857e-03
[...]
POINT_DATA 469
SCALARS Radius double 1
LOOKUP_TABLE default
2.00000000e-03
2.00000000e-03
2.00000000e-03
2.00000000e-03
2.00000000e-03
2.00000000e-03
2.00000000e-03
2.00000000e-03
2.00000000e-03
2.00000000e-03
2.00000000e-03
2.00000000e-03
2.00000000e-03
2.00000000e-03
2.00000000e-03
2.00000000e-03
2.00000000e-03
2.00000000e-03
2.00000000e-03
2.00000000e-03
2.00000000e-03
2.00000000e-03
2.00000000e-03
2.00000000e-03
2.00000000e-03
2.00000000e-03
2.00000000e-03
2.00000000e-03
2.00000000e-03
2.00000000e-03
2.00000000e-03
2.00000000e-03
2.00000000e-03
2.00000000e-03
2.00000000e-03
2.00000000e-03
2.00000000e-03
2.00000000e-03
2.00000000e-03
2.00000000e-03
2.00000000e-03
2.00000000e-03
2.00000000e-03
2.00000000e-03
2.00000000e-03
2.00000000e-03
2.00000000e-03
2.00000000e-03
2.00000000e-03
2.00000000e-03
2.00000000e-03
2.00000000e-03
2.00000000e-03
2.00000000e-03
2.00000000e-03
2.00000000e-03
2.00000000e-03
2.00000000e-03
2.00000000e-03
2.00000000e-03
2.00000000e-03
2.00000000e-03
2.00000000e-03
2.00000000e-03
2.00000000e-03
2.00000000e-03
2.00000000e-03
2.00000000e-03
2.00000000e-03
2.00000000e-03
2.00000000e-03
2.00000000e-03
2.00000000e-03
2.00000000e-03
2.00000000e-03
2.00000000e-03
2.00000000e-03
2.00000000e-03
2.00000000e-03
2.00000000e-03
2.00000000e-03
2.00000000e-03
2.00000000e-03
2.00000000e-03
2.00000000e-03
2.00000000e-03
2.00000000e-03
2.00000000e-03
2.00000000e-03
2.00000000e-03
2.00000000e-03
2.00000000e-03
2.00000000e-03
2.00000000e-03
2.00000000e-03
2.00000000e-03
2.00000000e-03
2.00000000e-03
2.00000000e-03
2.00000000e-03
2.00000000e-03
2.00000000e-03
2.00000000e-03
2.00000000e-03
2.00000000e-03
2.00000000e-03
2.00000000e-03
2.00000000e-03
2.00000000e-03
2.00000000e-03
2.00000000e-03
2.00000000e-03
2.00000000e-03
2.00000000e-03
2.00000000e-03
2.00000000e-03
2.00000000e-03
2.00000000e-03
2.00000000e-03
2.00000000e-03
2.00000000e-03
2.00000000e-03
2.00000000e-03
2.00000000e-03
2.00000000e-03
2.00000000e-03
2.00000000e-03
2.00000000e-03
2.00000000e-03
2.00000000e-03
2.00000000e-03
2.00000000e-03
2.00000000e-03
2.00000000e-03
2.00000000e-03
2.00000000e-03
2.00000000e-03
2.00000000e-03
2.00000000e-03
2.00000000e-03
2.00000000e-03
2.00000000e-03
2.00000000e-03
2.00000000e-03
2.00000000e-03
2.00000000e-03
2.00000000e-03
2.00000000e-03
2.00000000e-03
2.00000000e-03
2.00000000e-03
2.00000000e-03
2.00000000e-03
2.00000000e-03
2.00000000e-03
2.00000000e-03
2.00000000e-03
2.00000000e-03
2.00000000e-03
2.00000000e-03
2.00000000e-03
2.00000000e-03
2.00000000e-03
2.00000000e-03
2.00000000e-03
2.00000000e-03
2.00000000e-03
2.00000000e-03
2.00000000e-03
2.00000000e-03
2.00000000e-03
2.00000000e-03
2.00000000e-03
2.00000000e-03
2.00000000e-03
2.00000000e-03
2.00000000e-03
2.00000000e-03
2.00000000e-03
2.00000000e-03
2.00000000e-03
2.00000000e-03
2.00000000e-03
2.00000000e-03
2.00000000e-03
2.00000000e-03
2.00000000e-03
2.00000000e-03
2.00000000e-03
2.00000000e-03
2.00000000e-03
2.00000000e-03
2.00000000e-03
2.00000000e-03
2.00000000e-03
2.00000000e-03
2.00000000e-03
2.00000000e-03
2.00000000e-03
2.00000000e-03
2.00000000e-03
2.00000000e-03
2.00000000e-03
2.00000000e-03
2.00000000e-03
2.00000000e-03
2.00000000e-03
2.00000000e-03
2.00000000e-03
2.00000000e-03
2.00000000e-03
2.00000000e-03
2.00000000e-03
2.00000000e-03
2.00000000e-03
2.00000000e-03
2.00000000e-03
2.00000000e-03
2.00000000e-03
2.00000000e-03
2.00000000e-03
2.00000000e-03
2.00000000e-03
2.00000000e-03
2.00000000e-03
2.00000000e-03
2.00000000e-03
2.00000000e-03
2.00000000e-03
2.00000000e-03
2.00000000e-03
2.00000000e-03
2.00000000e-03
2.00000000e-03
2.00000000e-03
2.00000000e-03
2.00000000e-03
2.00000000e-03
2.00000000e-03
2.00000000e-03
2.00000000e-03
2.00000000e-03
2.00000000e-03
2.00000000e-03
2.00000000e-03
2.00000000e-03
2.00000000e-03
2.00000000e-03
2.00000000e-03
2.00000000e-03
2.00000000e-03
2.00000000e-03
2.00000000e-03
2.00000000e-03
2.00000000e-03
2.00000000e-03
2.00000000e-03
2.00000000e-03
2.00000000e-03
2.00000000e-03
2.00000000e-03
2.00000000e-03
2.00000000e-03
2.00000000e-03
2.00000000e-03
2.00000000e-03
2.00000000e-03
2.00000000e-03
2.00000000e-03
2.00000000e-03
2.00000000e-03
2.00000000e-03
2.00000000e-03
2.00000000e-03
2.00000000e-03
2.00000000e-03
2.00000000e-03
2.00000000e-03
2.00000000e-03
2.00000000e-03
2.00000000e-03
2.00000000e-03
2.00000000e-03
2.00000000e-03
2.00000000e-03
2.00000000e-03
2.00000000e-03
2.00000000e-03
2.00000000e-03
2.00000000e-03
2.00000000e-03
2.00000000e-03
2.00000000e-03
2.00000000e-03
2.00000000e-03
2.00000000e-03
2.00000000e-03
2.00000000e-03
2.00000000e-03
2.00000000e-03
2.00000000e-03
2.00000000e-03
2.00000000e-03
2.00000000e-03
2.00000000e-03
2.00000000e-03
2.00000000e-03
2.00000000e-03
2.00000000e-03
2.00000000e-03
2.00000000e-03
2.00000000e-03
2.00000000e-03
2.00000000e-03
2.00000000e-03
2.00000000e-03
2.00000000e-03
2.00000000e-03
2.00000000e-03
2.00000000e-03
2.00000000e-03
2.00000000e-03
2.00000000e-03
2.00000000e-03
2.00000000e-03
2.00000000e-03
2.00000000e-03
2.00000000e-03
2.00000000e-03
2.00000000e-03
2.00000000e-03
2.00000000e-03
2.00000000e-03
2.00000000e-03
2.00000000e-03
2.00000000e-03
2.00000000e-03
2.00000000e-03
2.00000000e-03
2.00000000e-03
2.00000000e-03
2.00000000e-03
2.00000000e-03
2.00000000e-03
2.00000000e-03
2.00000000e-03
2.00000000e-03
2.00000000e-03
2.00000000e-03
2.00000000e-03
2.00000000e-03
2.00000000e-03
2.00000000e-03
2.00000000e-03
2.00000000e-03
2.00000000e-03
2.00000000e-03
2.00000000e-03
2.00000000e-03
2.00000000e-03
2.00000000e-03
2.00000000e-03
2.00000000e-03
2.00000000e-03
2.00000000e-03
2.00000000e-03
2.00000000e-03
2.00000000e-03
2.00000000e-03
2.00000000e-03
2.00000000e-03
2.00000000e-03
2.00000000e-03
2.00000000e-03
2.00000000e-03
2.00000000e-03
2.00000000e-03
2.00000000e-03
2.00000000e-03
2.00000000e-03
2.00000000e-03
2.00000000e-03
2.00000000e-03
2.00000000e-03
2.00000000e-03
2.00000000e-03
2.00000000e-03
2.00000000e-03
2.00000000e-03
2.00000000e-03
2.00000000e-03
2.00000000e-03
2.00000000e-03
2.00000000e-03
2.00000000e-03
2.00000000e-03
2.00000000e-03
2.00000000e-03
2.00000000e-03
2.00000000e-03
2.00000000e-03
2.00000000e-03
2.00000000e-03
2.00000000e-03
2.00000000e-03
2.00000000e-03
2.00000000e-03
2.00000000e-03
2.00000000e-03
2.00000000e-03
2.00000000e-03
2.00000000e-03
2.00000000e-03
2.00000000e-03
2.00000000e-03
2.00000000e-03
2.00000000e-03
2.00000000e-03
2.00000000e-03
2.00000000e-03
2.00000000e-03
2.00000000e-03
2.00000000e-03
2.00000000e-03
2.00000000e-03
2.00000000e-03
2.00000000e-03
2.00000000e-03
2.00000000e-03
2.00000000e-03
2.00000000e-03
2.00000000e-03
2.00000000e-03
2.00000000e-03
2.00000000e-03
2.00000000e-03
2.00000000e-03
2.00000000e-03
2.00000000e-03
2.00000000e-03
2.00000000e-03
2.00000000e-03
2.00000000e-03
2.00000000e-03
2.00000000e-03
2.00000000e-03
2.00000000e-03
2.00000000e-03
2.00000000e-03
2.00000000e-03
2.00000000e-03
2.00000000e-03
2.00000000e-03
2.00000000e-03
2.00000000e-03
2.00000000e-03
2.00000000e-03
2.00000000e-03
2.00000000e-03
2.00000000e-03
2.00000000e-03
2.00000000e-03
2.00000000e-03
2.00000000e-03
2.00000000e-03
2.00000000e-03
2.00000000e-03
2.00000000e-03
2.00000000e-03
