# vtk DataFile Version 2.0
Particle data
ASCII
DATASET POLYDATA
POINTS 469 double
3.45337043e-02	3.76682734e-03	8.69131790e-03
3.23695015e-02	-5.17579450e-03	1.49034854e-02
2.59591778e-02	-1.60842380e-02	5.88861913e-03
-1.81071605e-03	-2.78865833e-02	1.01382449e-02
2.55993942e-02	-6.43764836e-03	2.62638316e-03
3.87461879e-02	8.28024269e-03	2.82684123e-03
3.38114578e-02	3.06334049e-03	1.19784840e-02
6.93395423e-03	-2.13254977e-02	1.78097692e-02
3.52579531e-02	-1.26020671e-02	1.79198523e-02
4.41009600e-03	-3.85464652e-02	1.77126000e-02
3.82067610e-02	1.69397519e-02	1.73293281e-02
3.16946146e-02	-3.25902864e-03	1.78135055e-02
2.88503590e-02	-2.78803468e-02	1.16517576e-02
2.41593874e-02	-1.28144405e-02	3.40265727e-03
3.76735670e-02	1.07358456e-02	1.47122512e-02
-9.39029354e-04	-3.85800927e-02	1.06219339e-02
6.61697827e-03	-2.14873135e-02	9.49803517e-03
3.49516453e-02	-7.95180941e-03	2.00602588e-03
6.00548483e-03	-2.42575328e-02	1.34668941e-02
3.22070510e-02	1.33662150e-02	1.06303425e-02
2.76685766e-02	1.20828247e-02	1.99692465e-03
3.27337241e-02	-1.72812640e-02	1.79647220e-02
-9.94933808e-03	-3.88845790e-02	1.92707559e-03
1.76799833e-02	-1.41012574e-02	2.10282081e-03
2.11403440e-02	-1.57345237e-02	2.05473715e-03
6.89766771e-03	-3.64754745e-02	8.89011669e-03
1.12855288e-02	6.31387425e-04	1.18214041e-02
3.43243262e-02	-1.33167152e-02	1.36342562e-02
-5.13599905e-03	-2.73776795e-02	7.74827673e-03
1.14806311e-02	-1.69807772e-02	1.41419705e-02
3.16521621e-02	-1.17495361e-02	1.08062395e-02
3.96564837e-02	-7.02365906e-03	2.17861436e-03
3.48188997e-02	-5.48948627e-03	5.65759603e-03
2.10878498e-02	-1.98023882e-02	1.79478830e-02
1.63866930e-02	-3.72131384e-02	1.14840744e-02
2.88182363e-02	-1.74549426e-02	1.12885647e-02
3.77595508e-02	8.25867405e-03	6.86698448e-03
-2.43396930e-03	-1.55212345e-02	1.11031909e-02
3.22885194e-02	-7.08315347e-04	1.15228223e-02
2.01402449e-02	-1.11574583e-02	2.17557316e-03
4.64306159e-03	-1.21943976e-02	8.19524865e-03
3.88277977e-02	-5.63004988e-03	1.51471564e-02
1.59617098e-02	-3.53775305e-02	2.15392923e-03
2.16059236e-02	-2.36995854e-03	1.60912955e-02
1.32247984e-02	-2.68163692e-02	1.64913140e-02
2.46080683e-02	8.17368393e-03	1.14232308e-02
2.20996790e-02	3.44068184e-03	1.56744708e-02
1.21801778e-02	-9.28661523e-03	7.76567720e-03
8.11237974e-03	-2.06785783e-02	1.14987991e-02
2.81648059e-02	4.39041035e-03	1.72698134e-02
7.79899639e-03	-1.78805074e-02	2.39216328e-03
1.23096557e-02	-1.79163170e-02	8.71783937e-03
-9.78643895e-03	-2.63330594e-02	1.24557952e-02
9.28592874e-03	-1.99523263e-02	6.04207032e-03
2.79033494e-03	-3.71827632e-02	1.08122285e-02
-9.28556332e-04	-2.09791061e-02	1.51577516e-02
1.37259521e-03	-4.10490729e-02	8.66064336e-03
2.45211012e-02	8.58278232e-03	1.49965094e-02
1.76051092e-02	-3.24198767e-02	1.44434027e-02
1.20572085e-02	-2.96521994e-02	1.54248899e-02
2.06557592e-02	-3.01489311e-02	1.77717012e-02
1.91117775e-02	-2.36500833e-02	1.03303907e-02
2.00742494e-02	-1.03071362e-02	1.80189997e-02
-6.42157060e-03	-3.55748174e-02	9.41336852e-03
2.82085021e-02	-2.00170270e-02	4.18175743e-03
3.29861041e-02	1.94453703e-02	7.03060773e-03
1.17782727e-02	-3.75472019e-02	3.35154245e-03
3.17711886e-02	-5.30404109e-03	1.82242544e-02
1.08188321e-02	-3.55405320e-02	5.96329114e-03
2.78943269e-02	-2.86227288e-02	9.63315142e-03
1.24506215e-02	3.89042245e-04	3.01581020e-03
3.41230088e-02	-1.71687510e-02	2.48442301e-03
3.37684724e-02	7.93205539e-03	1.80064300e-02
1.64552333e-02	9.27182264e-04	8.44326240e-03
3.93157253e-02	-1.27027045e-03	5.90271519e-03
1.52263721e-02	2.42963760e-03	1.53837945e-02
6.09240347e-03	-1.76794753e-02	8.23884965e-03
2.84551599e-02	-3.83051805e-04	1.02636617e-02
2.61083203e-02	-3.00801384e-02	1.78351487e-02
-2.05249063e-03	-3.74059868e-02	1.78097505e-02
2.17129074e-02	4.87993801e-03	6.17777343e-03
2.12547075e-02	-2.29338508e-02	6.72200397e-03
1.85462593e-02	-2.48018898e-02	1.96385095e-03
1.52249443e-02	-2.40056021e-02	1.79464316e-02
1.86399216e-02	-2.83680473e-02	2.09375982e-03
3.17461743e-02	1.95932152e-02	1.71895611e-03
3.62985776e-02	-2.46820543e-03	1.40654778e-02
-6.21038300e-03	-3.91361488e-02	1.09930117e-02
2.49944925e-02	-2.75957279e-02	6.46295102e-03
8.53041876e-03	-3.26307883e-02	4.49941704e-03
2.10156766e-02	7.33393863e-03	3.94008480e-03
2.93107229e-02	3.62063441e-03	2.23401402e-03
3.42423290e-02	-1.66666295e-02	6.41336512e-03
1.06403066e-02	3.73276131e-03	6.07480257e-03
2.83142376e-02	-1.15232788e-02	6.90917742e-03
3.73640190e-02	-1.65505353e-02	8.29595969e-03
-7.72525403e-03	-3.82819361e-02	5.88659487e-03
9.11183366e-03	-3.54497136e-02	1.30835091e-02
2.30305601e-02	-1.37756404e-02	1.81127570e-02
2.40236594e-02	-1.23388763e-02	7.68634155e-03
7.24431097e-03	-3.17988262e-02	8.05210258e-03
9.85776181e-03	-3.10775092e-02	1.18061848e-02
-9.99311137e-03	-3.02131288e-02	1.65741685e-02
3.06142068e-02	-2.52382769e-02	1.70171451e-02
1.09246526e-02	-3.27147028e-02	7.21390987e-03
1.71565471e-02	-6.04060203e-03	2.43152882e-03
1.04400929e-02	-2.23738726e-02	5.84283937e-03
8.40430674e-03	-2.66323799e-02	6.29702324e-03
7.80035649e-03	-3.62599376e-02	1.64464274e-03
2.63826457e-02	-5.11705881e-03	5.41251540e-03
2.37974123e-03	-3.70767782e-02	2.10777768e-03
2.48568562e-02	1.17599960e-02	1.80946678e-02
2.03766402e-02	1.29479462e-03	1.12305542e-02
-7.88571617e-04	-2.94757824e-02	2.26679430e-03
2.21775243e-02	-2.48966116e-02	1.50129773e-02
1.24292158e-02	-3.18524771e-02	1.98095241e-03
2.15281803e-03	-1.06541923e-02	1.08254246e-02
2.13969033e-03	-3.90010798e-02	4.84853641e-03
2.92350274e-02	-8.31059765e-03	1.07229066e-02
3.96434048e-02	-4.30909375e-03	7.43266039e-03
3.06550257e-02	8.90340909e-03	1.90512788e-03
1.80579172e-02	-1.60995104e-02	1.60208837e-02
3.39494688e-02	1.80014314e-02	1.83064268e-02
2.50618360e-02	-3.26348514e-02	5.70385338e-03
3.38315980e-02	-2.17467560e-02	1.82629367e-02
3.20613420e-02	1.68139526e-02	5.77245522e-03
3.94865698e-02	5.83260629e-03	5.97337874e-03
3.34085879e-02	-1.74791185e-04	8.02115667e-03
1.09186057e-03	-1.97030991e-02	1.13808483e-02
1.20823736e-02	-8.06918382e-03	1.98206687e-03
4.69077632e-03	-1.54964282e-02	5.46697506e-03
3.42139330e-02	-2.09275700e-02	4.50561283e-03
2.16486164e-02	7.07934186e-03	1.77768184e-02
3.66085860e-02	-5.62665676e-03	1.33382346e-02
1.87242343e-02	-1.32046296e-02	9.43148675e-03
2.16609930e-02	-3.31459591e-02	1.40391207e-02
3.11365548e-02	-1.03533516e-02	3.96178223e-03
3.56664246e-02	4.92827204e-03	2.06454491e-03
1.52023110e-02	-1.85780603e-02	1.18690225e-02
9.88402637e-03	-1.12881145e-02	1.60085756e-02
1.92353037e-02	-2.71580158e-02	1.54067586e-02
3.12877110e-02	1.40681469e-02	2.02655337e-03
2.85305210e-02	1.21729938e-02	1.37829809e-02
-3.53483642e-03	-1.78560910e-02	4.71898458e-03
3.07002985e-02	2.90906362e-03	9.07679328e-03
3.48106939e-02	1.70220006e-02	2.63626263e-03
-5.94677339e-03	-3.94443373e-02	2.02614140e-03
3.66676837e-02	1.30186015e-02	2.37956524e-03
1.72508333e-02	-1.76084474e-02	8.60084620e-03
7.17503957e-03	-3.17094257e-02	1.51910069e-02
2.55308697e-02	4.97531745e-03	9.77323072e-03
1.29893144e-02	-2.43289492e-02	8.47059662e-03
4.02132494e-02	3.46801328e-03	1.21526121e-02
2.29167817e-02	1.01886287e-02	1.30214458e-02
4.11396838e-03	-2.19224578e-02	8.66694142e-03
-1.31155923e-03	-3.00776965e-02	1.34795171e-02
3.98809582e-02	2.14845958e-03	4.21312516e-03
2.15312898e-02	-1.00648515e-02	5.26906328e-03
2.62329229e-02	-2.95016150e-02	1.45484321e-02
2.58010463e-02	4.94732471e-05	2.02303274e-03
3.46625290e-02	-1.27266891e-02	7.57072640e-03
3.98660959e-02	6.54363272e-03	1.82051432e-03
2.26732704e-02	-3.13905613e-02	9.84169998e-03
-5.31816747e-03	-2.55541268e-02	1.77551861e-02
1.71243787e-02	-2.03010814e-02	2.17947910e-03
2.89810353e-02	-4.13476018e-03	1.32002071e-02
7.88261345e-03	-1.70438894e-02	8.41302416e-03
3.20922999e-02	1.07251929e-02	6.25727426e-03
-5.58624426e-03	-3.41505809e-02	1.77305312e-02
-3.32778094e-03	-3.93773847e-02	6.50142563e-03
3.95520725e-02	6.66979022e-03	1.01057948e-02
1.12053484e-02	-3.62110116e-02	1.03258625e-02
1.53662510e-02	-6.75149802e-03	1.06569877e-02
3.26854889e-02	-2.07682747e-03	1.50067580e-02
2.83300836e-02	4.25007981e-03	6.04266586e-03
3.60022469e-02	-5.26470645e-04	1.16881015e-02
3.84053042e-02	-1.01955437e-02	1.63875841e-03
2.78604165e-02	-2.19559395e-02	1.80171469e-02
4.01468868e-02	-1.96631735e-04	1.80185358e-02
1.76800720e-02	-2.15963258e-02	7.16343563e-03
-1.94472347e-03	-2.66165504e-02	6.33595128e-03
2.11647094e-02	-2.71616049e-02	4.97954621e-03
2.71825740e-02	2.17703869e-04	1.82534293e-02
-1.21851304e-02	-3.52761239e-02	1.27315610e-02
2.42285154e-02	-1.83461371e-02	1.15319143e-02
4.05833784e-02	6.21510435e-04	9.88816794e-03
3.31712599e-02	9.44879587e-03	1.42791107e-02
3.87676451e-02	-1.08776381e-02	1.45526331e-02
2.33098595e-02	-4.40423241e-04	1.78472254e-02
3.99433637e-02	-1.93835430e-03	1.74860458e-03
7.33982725e-04	-3.61576706e-02	1.50757040e-02
1.94678911e-02	-2.23442350e-02	1.41867659e-02
-9.00823853e-03	-3.88822036e-02	1.52442881e-02
-1.44116145e-02	-3.21475701e-02	1.31870073e-02
2.13812289e-02	-1.47932017e-02	5.72622603e-03
7.14264460e-03	-1.73093585e-02	1.68931454e-02
2.59506647e-02	-2.25130226e-02	1.03263818e-02
5.09533946e-03	-2.74098213e-02	9.35866021e-03
2.25512578e-02	-2.62696228e-03	9.84852438e-03
8.01327907e-03	-3.53421484e-02	1.80610589e-02
2.09037285e-02	1.20407306e-02	9.61616846e-03
2.20844020e-02	8.58398730e-03	7.83547831e-03
-6.84986865e-03	-3.90157044e-02	1.76920900e-02
3.31179913e-02	-2.15115455e-02	1.13339449e-02
5.42689364e-03	-3.63861686e-02	1.47169705e-02
1.93758796e-02	-7.09261359e-04	6.91411373e-03
4.26801229e-03	-1.91895820e-02	1.52631033e-02
8.66630138e-03	-3.89612701e-03	1.30107073e-02
3.09250242e-02	-1.18180115e-02	1.45620805e-02
5.62323662e-03	-1.59583074e-02	1.21740390e-02
1.78970916e-02	-3.60838094e-02	1.53777313e-02
9.49852044e-03	-2.96325583e-02	2.12762034e-03
1.33592810e-02	-3.55078827e-02	1.46757030e-02
1.52589247e-02	-2.89978356e-02	1.43533560e-02
3.38789432e-02	-6.73372350e-03	1.48510494e-02
2.57379251e-02	-1.64958099e-02	2.13738336e-03
[...]
POINT_DATA 469
SCALARS Radius double 1
LOOKUP_TABLE default
2.00000000e-03
2.00000000e-03
2.00000000e-03
2.00000000e-03
2.00000000e-03
2.00000000e-03
2.00000000e-03
2.00000000e-03
2.00000000e-03
2.00000000e-03
2.00000000e-03
2.00000000e-03
2.00000000e-03
2.00000000e-03
2.00000000e-03
2.00000000e-03
2.00000000e-03
2.00000000e-03
2.00000000e-03
2.00000000e-03
2.00000000e-03
2.00000000e-03
2.00000000e-03
2.00000000e-03
2.00000000e-03
2.00000000e-03
2.00000000e-03
2.00000000e-03
2.00000000e-03
2.00000000e-03
2.00000000e-03
2.00000000e-03
2.00000000e-03
2.00000000e-03
2.00000000e-03
2.00000000e-03
2.00000000e-03
2.00000000e-03
2.00000000e-03
2.00000000e-03
2.00000000e-03
2.00000000e-03
2.00000000e-03
2.00000000e-03
2.00000000e-03
2.00000000e-03
2.00000000e-03
2.00000000e-03
2.00000000e-03
2.00000000e-03
2.00000000e-03
2.00000000e-03
2.00000000e-03
2.00000000e-03
2.00000000e-03
2.00000000e-03
2.00000000e-03
2.00000000e-03
2.00000000e-03
2.00000000e-03
2.00000000e-03
2.00000000e-03
2.00000000e-03
2.00000000e-03
2.00000000e-03
2.00000000e-03
2.00000000e-03
2.00000000e-03
2.00000000e-03
2.00000000e-03
2.00000000e-03
2.00000000e-03
2.00000000e-03
2.00000000e-03
2.00000000e-03
2.00000000e-03
2.00000000e-03
2.00000000e-03
2.00000000e-03
2.00000000e-03
2.00000000e-03
2.00000000e-03
2.00000000e-03
2.00000000e-03
2.00000000e-03
2.00000000e-03
2.00000000e-03
2.00000000e-03
2.00000000e-03
2.00000000e-03
2.00000000e-03
2.00000000e-03
2.00000000e-03
2.00000000e-03
2.00000000e-03
2.00000000e-03
2.00000000e-03
2.00000000e-03
2.00000000e-03
2.00000000e-03
2.00000000e-03
2.00000000e-03
2.00000000e-03
2.00000000e-03
2.00000000e-03
2.00000000e-03
2.00000000e-03
2.00000000e-03
2.00000000e-03
2.00000000e-03
2.00000000e-03
2.00000000e-03
2.00000000e-03
2.00000000e-03
2.00000000e-03
2.00000000e-03
2.00000000e-03
2.00000000e-03
2.00000000e-03
2.00000000e-03
2.00000000e-03
2.00000000e-03
2.00000000e-03
2.00000000e-03
2.00000000e-03
2.00000000e-03
2.00000000e-03
2.00000000e-03
2.00000000e-03
2.00000000e-03
2.00000000e-03
2.00000000e-03
2.00000000e-03
2.00000000e-03
2.00000000e-03
2.00000000e-03
2.00000000e-03
2.00000000e-03
2.00000000e-03
2.00000000e-03
2.00000000e-03
2.00000000e-03
2.00000000e-03
2.00000000e-03
2.00000000e-03
2.00000000e-03
2.00000000e-03
2.00000000e-03
2.00000000e-03
2.00000000e-03
2.00000000e-03
2.00000000e-03
2.00000000e-03
2.00000000e-03
2.00000000e-03
2.00000000e-03
2.00000000e-03
2.00000000e-03
2.00000000e-03
2.00000000e-03
2.00000000e-03
2.00000000e-03
2.00000000e-03
2.00000000e-03
2.00000000e-03
2.00000000e-03
2.00000000e-03
2.00000000e-03
2.00000000e-03
2.00000000e-03
2.00000000e-03
2.00000000e-03
2.00000000e-03
2.00000000e-03
2.00000000e-03
2.00000000e-03
2.00000000e-03
2.00000000e-03
2.00000000e-03
2.00000000e-03
2.00000000e-03
2.00000000e-03
2.00000000e-03
2.00000000e-03
2.00000000e-03
2.00000000e-03
2.00000000e-03
2.00000000e-03
2.00000000e-03
2.00000000e-03
2.00000000e-03
2.00000000e-03
2.00000000e-03
2.00000000e-03
2.00000000e-03
2.00000000e-03
2.00000000e-03
2.00000000e-03
2.00000000e-03
2.00000000e-03
2.00000000e-03
2.00000000e-03
2.00000000e-03
2.00000000e-03
2.00000000e-03
2.00000000e-03
2.00000000e-03
2.00000000e-03
2.00000000e-03
2.00000000e-03
2.00000000e-03
2.00000000e-03
2.00000000e-03
2.00000000e-03
2.00000000e-03
2.00000000e-03
2.00000000e-03
2.00000000e-03
2.00000000e-03
2.00000000e-03
2.00000000e-03
2.00000000e-03
2.00000000e-03
2.00000000e-03
2.00000000e-03
2.00000000e-03
2.00000000e-03
2.00000000e-03
2.00000000e-03
2.00000000e-03
2.00000000e-03
2.00000000e-03
2.00000000e-03
2.00000000e-03
2.00000000e-03
2.00000000e-03
2.00000000e-03
2.00000000e-03
2.00000000e-03
2.00000000e-03
2.00000000e-03
2.00000000e-03
2.00000000e-03
2.00000000e-03
2.00000000e-03
2.00000000e-03
2.00000000e-03
2.00000000e-03
2.00000000e-03
2.00000000e-03
2.00000000e-03
2.00000000e-03
2.00000000e-03
2.00000000e-03
2.00000000e-03
2.00000000e-03
2.00000000e-03
2.00000000e-03
2.00000000e-03
2.00000000e-03
2.00000000e-03
2.00000000e-03
2.00000000e-03
2.00000000e-03
2.00000000e-03
2.00000000e-03
2.00000000e-03
2.00000000e-03
2.00000000e-03
2.00000000e-03
2.00000000e-03
2.00000000e-03
2.00000000e-03
2.00000000e-03
2.00000000e-03
2.00000000e-03
2.00000000e-03
2.00000000e-03
2.00000000e-03
2.00000000e-03
2.00000000e-03
2.00000000e-03
2.00000000e-03
2.00000000e-03
2.00000000e-03
2.00000000e-03
2.00000000e-03
2.00000000e-03
2.00000000e-03
2.00000000e-03
2.00000000e-03
2.00000000e-03
2.00000000e-03
2.00000000e-03
2.00000000e-03
2.00000000e-03
2.00000000e-03
2.00000000e-03
2.00000000e-03
2.00000000e-03
2.00000000e-03
2.00000000e-03
2.00000000e-03
2.00000000e-03
2.00000000e-03
2.00000000e-03
2.00000000e-03
2.00000000e-03
2.00000000e-03
2.00000000e-03
2.00000000e-03
2.00000000e-03
2.00000000e-03
2.00000000e-03
2.00000000e-03
2.00000000e-03
2.00000000e-03
2.00000000e-03
2.00000000e-03
2.00000000e-03
2.00000000e-03
2.00000000e-03
2.00000000e-03
2.00000000e-03
2.00000000e-03
2.00000000e-03
2.00000000e-03
2.00000000e-03
2.00000000e-03
2.00000000e-03
2.00000000e-03
2.00000000e-03
2.00000000e-03
2.00000000e-03
2.00000000e-03
2.00000000e-03
2.00000000e-03
2.00000000e-03
2.00000000e-03
2.00000000e-03
2.00000000e-03
2.00000000e-03
2.00000000e-03
2.00000000e-03
2.00000000e-03
2.00000000e-03
2.00000000e-03
2.00000000e-03
2.00000000e-03
2.00000000e-03
2.00000000e-03
2.00000000e-03
2.00000000e-03
2.00000000e-03
2.00000000e-03
2.00000000e-03
2.00000000e-03
2.00000000e-03
2.00000000e-03
2.00000000e-03
2.00000000e-03
2.00000000e-03
2.00000000e-03
2.00000000e-03
2.00000000e-03
2.00000000e-03
2.00000000e-03
2.00000000e-03
2.00000000e-03
2.00000000e-03
2.00000000e-03
2.00000000e-03
2.00000000e-03
2.00000000e-03
2.00000000e-03
2.00000000e-03
2.00000000e-03
2.00000000e-03
2.00000000e-03
2.00000000e-03
2.00000000e-03
2.00000000e-03
2.00000000e-03
2.00000000e-03
2.00000000e-03
2.00000000e-03
2.00000000e-03
2.00000000e-03
2.00000000e-03
2.00000000e-03
2.00000000e-03
2.00000000e-03
2.00000000e-03
2.00000000e-03
2.00000000e-03
2.00000000e-03
2.00000000e-03
2.00000000e-03
2.00000000e-03
2.00000000e-03
2.00000000e-03
2.00000000e-03
2.00000000e-03
2.00000000e-03
2.00000000e-03
2.00000000e-03
2.00000000e-03
2.00000000e-03
2.00000000e-03
2.00000000e-03
2.00000000e-03
2.00000000e-03
2.00000000e-03
2.00000000e-03
2.00000000e-03
2.00000000e-03
2.00000000e-03
2.00000000e-03
2.00000000e-03
2.00000000e-03
2.00000000e-03
2.00000000e-03
2.00000000e-03
2.00000000e-03
2.00000000e-03
2.00000000e-03
2.00000000e-03
2.00000000e-03
2.00000000e-03
2.00000000e-03
2.00000000e-03
2.00000000e-03
2.00000000e-03
2.00000000e-03
2.00000000e-03
2.00000000e-03
2.00000000e-03
2.00000000e-03
2.00000000e-03
2.00000000e-03
2.00000000e-03
2.00000000e-03
2.00000000e-03
2.00000000e-03
2.00000000e-03
2.00000000e-03
2.00000000e-03
2.00000000e-03
2.00000000e-03
2.00000000e-03
2.00000000e-03
2.00000000e-03
2.00000000e-03
2.00000000e-03
2.00000000e-03
2.00000000e-03
2.00000000e-03
2.00000000e-03
2.00000000e-03
2.00000000e-03
2.00000000e-03
2.00000000e-03
2.00000000e-03
2.00000000e-03
2.00000000e-03
2.00000000e-03
2.00000000e-03
2.00000000e-03
2.00000000e-03
