# vtk DataFile Version 2.0
Particle data
ASCII
DATASET POLYDATA
POINTS 469 double
1.70806065e-02	-3.44605066e-02	1.55985821e-02
1.77766730e-02	-2.33030335e-02	1.22842359e-02
-5.11359575e-03	-3.78493447e-02	1.42793224e-02
3.24227656e-02	-2.46604604e-03	8.25074698e-03
2.37492258e-02	-1.85982303e-02	1.55655274e-03
1.10095924e-02	-3.44406267e-02	2.91901084e-03
6.97549371e-03	-4.03475333e-02	1.84201759e-02
2.94206181e-02	2.79914002e-03	1.80419423e-02
-1.28919156e-02	-3.07076233e-02	1.75667050e-02
3.45561530e-02	7.62849370e-03	1.87487204e-02
2.18282812e-02	-3.11955129e-02	8.40040513e-03
1.04454303e-02	-3.06195627e-02	1.83831185e-02
1.31885894e-02	-4.21039040e-03	1.04511158e-02
1.20259233e-02	-2.18246373e-02	5.16267364e-03
2.36554128e-02	-2.49050035e-02	1.42829212e-02
3.90838789e-02	1.72335431e-03	1.14033795e-02
2.32313994e-02	-4.43680813e-03	5.59417805e-03
1.05144321e-02	-2.11242577e-02	2.56219227e-03
2.56008489e-02	-4.72670469e-03	1.35029889e-02
1.89976850e-02	-3.31248917e-02	5.06742659e-03
2.52944284e-02	-2.92011418e-02	2.31016623e-03
-3.88172344e-03	-2.69944186e-02	1.73891455e-02
4.02370180e-02	3.26496713e-05	1.69210838e-03
-8.65636275e-04	-3.44865231e-02	6.12098622e-03
5.74985931e-03	-2.87403959e-02	5.22264727e-03
3.43603915e-02	1.02527153e-02	8.85110205e-03
3.46096713e-02	-1.75590584e-02	1.39587927e-02
3.77537282e-03	-3.10627570e-02	1.75912356e-02
3.65533947e-02	-6.22903186e-03	1.14677562e-02
2.18773703e-02	1.15247177e-04	1.57250403e-02
1.50527280e-02	-2.72967799e-02	9.33990861e-03
-1.52199506e-02	-3.59071987e-02	8.25353534e-03
9.63242506e-03	-2.80792581e-02	7.97190474e-03
5.61375173e-03	-1.92294554e-02	1.73370519e-02
3.22028942e-02	1.88393068e-02	1.12794897e-02
1.05513614e-02	-2.17483638e-02	1.13720469e-02
1.78730549e-02	-3.58078250e-02	9.69193165e-03
3.93714660e-02	-1.35460281e-02	9.94035415e-03
1.13483938e-02	-3.20359890e-02	1.34631633e-02
1.87150276e-02	-2.64175116e-02	4.90573968e-03
3.61490710e-02	-8.89920988e-03	1.13453653e-02
9.53344562e-04	-3.40108021e-02	1.60825874e-02
3.49656398e-02	2.25350211e-02	3.29122692e-03
1.78066421e-02	-3.24778204e-02	1.81002903e-02
1.64604661e-02	-4.24947244e-03	1.41855089e-02
2.60097794e-02	-2.56935262e-02	1.12843085e-02
2.36144967e-02	-1.45730726e-02	9.12591578e-03
3.19146167e-02	-1.80805635e-02	1.33008609e-02
2.52165760e-02	-5.93552477e-03	1.05532953e-02
2.30458489e-02	-3.47656764e-02	1.83569786e-02
2.94585918e-02	4.68223397e-03	1.66596370e-03
2.29277810e-02	-1.47881593e-02	7.86688939e-03
3.72904999e-02	-1.64106594e-02	1.28303856e-02
2.62223193e-02	3.80899492e-04	3.07074348e-03
3.49928087e-02	3.31043093e-03	1.12987992e-02
3.41496167e-02	-1.35699114e-03	1.50694943e-02
3.69451813e-02	6.06118571e-03	8.77684811e-03
2.94212419e-02	-1.70373932e-02	1.79001421e-02
2.25017481e-02	7.22332836e-03	1.30098439e-02
2.53811302e-02	7.08853531e-03	1.48524832e-02
1.97900647e-02	7.11658568e-03	1.59428214e-02
1.28576874e-02	-1.32043364e-02	1.31511714e-02
2.11600209e-02	-4.67865885e-03	1.80200252e-02
3.65169797e-02	-8.49212362e-04	9.03447643e-03
7.29965983e-03	-1.99353144e-02	5.63505398e-03
2.43587229e-02	-2.48015515e-02	5.75524464e-03
3.63240310e-02	1.59700696e-02	2.93211131e-03
1.06172031e-02	-2.58644292e-02	1.46738974e-02
3.37587069e-02	1.36029975e-02	5.73534411e-03
8.64144452e-03	-8.70677593e-03	5.94733822e-03
3.55673738e-02	-8.75034805e-03	8.42330176e-03
-6.52238358e-03	-2.24032643e-02	2.76781057e-03
2.20543635e-02	-3.35332955e-02	1.77438973e-02
2.27647396e-02	-2.95993738e-02	1.35950364e-02
-6.12202872e-03	-3.93496193e-02	4.24435024e-03
3.37064648e-02	-7.86114311e-03	1.69833927e-02
2.39935822e-02	-3.14929927e-03	5.18140724e-03
1.20203329e-02	-3.78055074e-02	5.95291059e-03
1.45871153e-02	4.49936499e-03	1.82176421e-02
3.86206613e-02	2.54011799e-03	1.84035273e-02
2.99886354e-02	-1.76046700e-02	9.74533644e-03
2.25171498e-02	-6.45192072e-03	1.02694254e-02
1.50997216e-02	-8.29330379e-03	8.43967112e-03
1.03453122e-02	-1.05733184e-02	1.83094516e-02
1.42596592e-02	-1.28419274e-03	2.51633247e-03
2.78596422e-02	-3.30384302e-02	3.04728774e-03
1.86063787e-02	-2.05705942e-02	1.79410734e-02
4.00403326e-02	1.80373396e-03	1.07638577e-02
1.14632048e-02	-1.07710329e-02	5.79519959e-03
2.92676252e-02	9.77744741e-03	3.38800342e-03
3.07390464e-02	-2.27970612e-02	9.54562485e-03
2.24708886e-02	-2.81755479e-02	4.84819169e-03
-9.63640054e-03	-3.50907612e-02	9.92500880e-03
3.22890020e-02	-2.25264161e-02	1.14876658e-03
9.13916094e-03	-2.75323438e-02	1.09255589e-02
-1.69988637e-02	-3.19063693e-02	1.51054497e-02
4.01793836e-02	3.19645964e-04	5.93487796e-03
3.43401820e-02	1.42412840e-02	1.27419920e-02
1.48292451e-03	-2.90795403e-02	1.40377438e-02
1.16911008e-02	-3.12971264e-02	9.56438544e-03
3.13953838e-02	1.08020793e-02	7.35377078e-03
2.82392391e-02	3.93099199e-03	1.12901438e-02
3.58298720e-02	-8.77000230e-03	1.54647327e-02
1.89526687e-03	-1.56156788e-02	1.74701142e-02
2.55014533e-02	5.88654657e-03	9.08353831e-03
2.78382293e-02	-3.29078500e-02	1.07006347e-02
1.53792280e-02	-1.19321325e-02	8.87241237e-03
2.59315021e-02	1.77737446e-03	5.66882776e-03
3.17427387e-02	1.25910955e-02	2.25211329e-03
1.86587829e-02	-2.46938614e-02	8.85724854e-03
3.47199231e-02	4.59212126e-03	2.99861340e-03
2.82764305e-02	-2.59925230e-02	1.79832940e-02
3.02613792e-02	-1.42213345e-02	1.75436716e-02
3.20091248e-02	5.03204254e-04	2.34432812e-03
9.46916731e-03	-5.55285165e-03	1.45315845e-02
2.74234575e-02	1.40645823e-02	1.79776850e-03
2.81090025e-02	-2.86347636e-02	1.47505804e-02
3.78756538e-02	4.45990161e-03	5.08823978e-03
1.66729490e-02	-2.16440579e-02	4.91018522e-03
2.54913106e-03	-3.85307136e-02	3.05541376e-03
2.81476781e-02	-1.88102426e-02	2.17785558e-03
1.08675204e-02	-1.05884705e-02	1.49940945e-02
1.54520526e-02	-3.56305542e-02	1.67464971e-02
2.62049735e-02	1.63921998e-02	6.75575175e-03
-6.88240750e-03	-2.63724001e-02	1.76495183e-02
2.70896817e-02	-3.20977866e-02	1.51729384e-02
7.85917946e-03	-3.69318802e-02	5.38268104e-03
1.11759273e-02	-3.57768689e-02	1.20100296e-02
3.57465408e-02	-3.36636627e-03	1.01642658e-02
2.82897632e-02	-1.53208396e-02	1.75106504e-03
3.42738868e-02	-2.22578115e-04	1.73900864e-03
-1.02514353e-03	-1.82717411e-02	8.77502876e-03
2.54428497e-02	-2.02061796e-02	1.95404565e-02
5.72459047e-03	-3.64573453e-02	8.66981956e-03
1.87229554e-02	-1.47007730e-02	4.96929219e-03
2.81991664e-02	1.07250000e-02	1.15197310e-02
1.20398101e-02	-2.56165422e-02	6.36452264e-03
9.27144573e-03	-3.82041170e-02	1.44795950e-03
1.46353351e-02	-6.67579453e-03	1.22299062e-02
2.89752704e-02	-2.00289468e-03	1.47325672e-02
2.45947139e-02	9.21803162e-03	1.81433963e-02
2.48490050e-02	-3.33126422e-02	1.08398029e-02
2.54831931e-02	-1.22265344e-02	1.27102629e-02
3.70291706e-02	-1.40704218e-02	1.11240818e-03
1.17328657e-02	-3.40926886e-02	5.62317925e-03
2.31502721e-02	-3.18456869e-02	2.70909749e-03
4.08938876e-02	1.57515718e-03	1.18791279e-03
1.78488050e-02	-2.75082831e-02	1.85074836e-03
2.02671691e-02	-1.29260200e-02	1.09340143e-02
3.13723141e-02	1.00828471e-02	1.46307152e-02
2.60522120e-02	-1.67199743e-02	1.78844528e-02
1.90014729e-02	-7.97345507e-03	1.03158647e-02
1.08295155e-02	-3.53063469e-02	9.10121230e-03
2.74226640e-02	-1.93163169e-02	1.17624413e-02
2.74281334e-02	-3.06973830e-03	7.60009459e-03
3.33712695e-02	-2.89075463e-04	1.48924216e-02
7.46307611e-03	-3.43377278e-02	1.99741076e-03
2.10606948e-02	-1.56595482e-02	5.44391208e-03
1.00327507e-02	4.22663964e-04	1.33886132e-02
1.46746135e-02	-2.67004657e-02	5.73720324e-03
2.72058899e-03	-3.34252378e-02	8.96806551e-03
1.35979011e-02	-3.72567137e-02	2.19777609e-03
2.05427343e-02	6.17309878e-03	6.94779437e-03
3.45626716e-02	-5.72576063e-03	1.80679419e-02
1.76768568e-02	-5.38603603e-03	5.29229622e-03
1.61107047e-02	-2.65292237e-02	1.32055040e-02
3.00833560e-02	-4.78142596e-03	5.32884832e-03
9.35519461e-03	-3.84133032e-02	8.29801045e-03
3.65330720e-02	-1.28690616e-03	1.83252667e-02
3.91504358e-02	2.66288727e-03	6.70214732e-03
1.54582890e-03	-3.92666341e-02	1.61722348e-02
3.41887686e-02	1.44245313e-02	1.01650343e-02
3.32121421e-02	-1.87419812e-02	1.78496496e-02
1.33874253e-02	-2.92159822e-02	1.67551934e-02
1.74246099e-02	-3.48026873e-02	1.77498831e-02
-7.63676467e-03	-3.96336796e-02	1.08559406e-02
5.66983109e-03	-2.16285323e-02	2.20068663e-03
3.18197328e-03	-1.79846754e-02	1.37629918e-02
-6.26221465e-03	-3.64029864e-02	1.46834643e-02
-6.54172573e-03	-3.33813409e-02	6.39033789e-03
3.61400210e-02	-6.74385871e-03	4.58529910e-03
1.40903722e-02	-5.73879894e-03	5.97222930e-03
2.72701004e-02	-3.19316672e-02	1.86528260e-02
3.73901741e-02	-1.05136554e-02	1.42125437e-02
5.51171422e-03	-2.50738426e-02	1.77135013e-02
4.10950239e-03	-3.42376013e-02	1.03354569e-02
2.38875063e-02	-1.57824493e-02	2.51887420e-03
2.20437563e-03	-3.04528688e-02	1.28952560e-02
1.67901142e-02	-3.33964127e-02	1.80909009e-02
4.52703495e-03	-3.25784313e-02	2.26161309e-03
3.50112953e-02	2.71517566e-03	1.59698728e-02
1.56464318e-02	-1.08185501e-02	1.74302756e-02
3.94772708e-02	-7.90083088e-04	1.41374944e-02
3.20738176e-02	-1.73706351e-02	1.70060561e-02
1.95043598e-02	-2.00234509e-02	2.20576692e-03
3.07274160e-02	-3.85673998e-03	1.25586795e-02
2.07531653e-03	-2.52579825e-02	1.42387677e-02
2.57213514e-02	1.69260158e-03	1.04140592e-02
2.49124444e-02	-9.27157754e-03	5.78116098e-03
3.34540658e-02	1.57935594e-02	1.85572014e-02
3.07872779e-02	-1.88487614e-02	1.41584682e-02
2.87169021e-02	-1.64678825e-02	1.47696868e-02
3.85901059e-02	7.42139555e-04	1.81770881e-02
-2.03669644e-03	-2.23586200e-02	1.23576592e-02
3.45183392e-02	9.02104892e-03	1.35879625e-02
3.04404793e-02	-1.44311194e-02	8.43550201e-03
3.14547242e-02	-1.08234009e-02	1.33692438e-02
3.69645350e-02	-1.23735262e-02	6.25683493e-03
1.15323771e-02	-2.46691498e-02	1.57412122e-02
3.11722568e-02	-7.77413576e-03	1.26952659e-02
2.74645638e-02	1.52527880e-02	1.43804490e-02
2.18656826e-02	5.55293088e-03	1.59788923e-03
2.94000081e-02	1.37136381e-02	1.10092393e-02
1.80159993e-02	1.09588110e-03	1.34465626e-02
1.95511268e-02	-1.81696206e-02	1.58404909e-02
1.39893664e-02	-1.78487545e-02	1.27066203e-03
[...]
POINT_DATA 469
SCALARS Radius double 1
LOOKUP_TABLE default
2.00000000e-03
2.00000000e-03
2.00000000e-03
2.00000000e-03
2.00000000e-03
2.00000000e-03
2.00000000e-03
2.00000000e-03
2.00000000e-03
2.00000000e-03
2.00000000e-03
2.00000000e-03
2.00000000e-03
2.00000000e-03
2.00000000e-03
2.00000000e-03
2.00000000e-03
2.00000000e-03
2.00000000e-03
2.00000000e-03
2.00000000e-03
2.00000000e-03
2.00000000e-03
2.00000000e-03
2.00000000e-03
2.00000000e-03
2.00000000e-03
2.00000000e-03
2.00000000e-03
2.00000000e-03
2.00000000e-03
2.00000000e-03
2.00000000e-03
2.00000000e-03
2.00000000e-03
2.00000000e-03
2.00000000e-03
2.00000000e-03
2.00000000e-03
2.00000000e-03
2.00000000e-03
2.00000000e-03
2.00000000e-03
2.00000000e-03
2.00000000e-03
2.00000000e-03
2.00000000e-03
2.00000000e-03
2.00000000e-03
2.00000000e-03
2.00000000e-03
2.00000000e-03
2.00000000e-03
2.00000000e-03
2.00000000e-03
2.00000000e-03
2.00000000e-03
2.00000000e-03
2.00000000e-03
2.00000000e-03
2.00000000e-03
2.00000000e-03
2.00000000e-03
2.00000000e-03
2.00000000e-03
2.00000000e-03
2.00000000e-03
2.00000000e-03
2.00000000e-03
2.00000000e-03
2.00000000e-03
2.00000000e-03
2.00000000e-03
2.00000000e-03
2.00000000e-03
2.00000000e-03
2.00000000e-03
2.00000000e-03
2.00000000e-03
2.00000000e-03
2.00000000e-03
2.00000000e-03
2.00000000e-03
2.00000000e-03
2.00000000e-03
2.00000000e-03
2.00000000e-03
2.00000000e-03
2.00000000e-03
2.00000000e-03
2.00000000e-03
2.00000000e-03
2.00000000e-03
2.00000000e-03
2.00000000e-03
2.00000000e-03
2.00000000e-03
2.00000000e-03
2.00000000e-03
2.00000000e-03
2.00000000e-03
2.00000000e-03
2.00000000e-03
2.00000000e-03
2.00000000e-03
2.00000000e-03
2.00000000e-03
2.00000000e-03
2.00000000e-03
2.00000000e-03
2.00000000e-03
2.00000000e-03
2.00000000e-03
2.00000000e-03
2.00000000e-03
2.00000000e-03
2.00000000e-03
2.00000000e-03
2.00000000e-03
2.00000000e-03
2.00000000e-03
2.00000000e-03
2.00000000e-03
2.00000000e-03
2.00000000e-03
2.00000000e-03
2.00000000e-03
2.00000000e-03
2.00000000e-03
2.00000000e-03
2.00000000e-03
2.00000000e-03
2.00000000e-03
2.00000000e-03
2.00000000e-03
2.00000000e-03
2.00000000e-03
2.00000000e-03
2.00000000e-03
2.00000000e-03
2.00000000e-03
2.00000000e-03
2.00000000e-03
2.00000000e-03
2.00000000e-03
2.00000000e-03
2.00000000e-03
2.00000000e-03
2.00000000e-03
2.00000000e-03
2.00000000e-03
2.00000000e-03
2.00000000e-03
2.00000000e-03
2.00000000e-03
2.00000000e-03
2.00000000e-03
2.00000000e-03
2.00000000e-03
2.00000000e-03
2.00000000e-03
2.00000000e-03
2.00000000e-03
2.00000000e-03
2.00000000e-03
2.00000000e-03
2.00000000e-03
2.00000000e-03
2.00000000e-03
2.00000000e-03
2.00000000e-03
2.00000000e-03
2.00000000e-03
2.00000000e-03
2.00000000e-03
2.00000000e-03
2.00000000e-03
2.00000000e-03
2.00000000e-03
2.00000000e-03
2.00000000e-03
2.00000000e-03
2.00000000e-03
2.00000000e-03
2.00000000e-03
2.00000000e-03
2.00000000e-03
2.00000000e-03
2.00000000e-03
2.00000000e-03
2.00000000e-03
2.00000000e-03
2.00000000e-03
2.00000000e-03
2.00000000e-03
2.00000000e-03
2.00000000e-03
2.00000000e-03
2.00000000e-03
2.00000000e-03
2.00000000e-03
2.00000000e-03
2.00000000e-03
2.00000000e-03
2.00000000e-03
2.00000000e-03
2.00000000e-03
2.00000000e-03
2.00000000e-03
2.00000000e-03
2.00000000e-03
2.00000000e-03
2.00000000e-03
2.00000000e-03
2.00000000e-03
2.00000000e-03
2.00000000e-03
2.00000000e-03
2.00000000e-03
2.00000000e-03
2.00000000e-03
2.00000000e-03
2.00000000e-03
2.00000000e-03
2.00000000e-03
2.00000000e-03
2.00000000e-03
2.00000000e-03
2.00000000e-03
2.00000000e-03
2.00000000e-03
2.00000000e-03
2.00000000e-03
2.00000000e-03
2.00000000e-03
2.00000000e-03
2.00000000e-03
2.00000000e-03
2.00000000e-03
2.00000000e-03
2.00000000e-03
2.00000000e-03
2.00000000e-03
2.00000000e-03
2.00000000e-03
2.00000000e-03
2.00000000e-03
2.00000000e-03
2.00000000e-03
2.00000000e-03
2.00000000e-03
2.00000000e-03
2.00000000e-03
2.00000000e-03
2.00000000e-03
2.00000000e-03
2.00000000e-03
2.00000000e-03
2.00000000e-03
2.00000000e-03
2.00000000e-03
2.00000000e-03
2.00000000e-03
2.00000000e-03
2.00000000e-03
2.00000000e-03
2.00000000e-03
2.00000000e-03
2.00000000e-03
2.00000000e-03
2.00000000e-03
2.00000000e-03
2.00000000e-03
2.00000000e-03
2.00000000e-03
2.00000000e-03
2.00000000e-03
2.00000000e-03
2.00000000e-03
2.00000000e-03
2.00000000e-03
2.00000000e-03
2.00000000e-03
2.00000000e-03
2.00000000e-03
2.00000000e-03
2.00000000e-03
2.00000000e-03
2.00000000e-03
2.00000000e-03
2.00000000e-03
2.00000000e-03
2.00000000e-03
2.00000000e-03
2.00000000e-03
2.00000000e-03
2.00000000e-03
2.00000000e-03
2.00000000e-03
2.00000000e-03
2.00000000e-03
2.00000000e-03
2.00000000e-03
2.00000000e-03
2.00000000e-03
2.00000000e-03
2.00000000e-03
2.00000000e-03
2.00000000e-03
2.00000000e-03
2.00000000e-03
2.00000000e-03
2.00000000e-03
2.00000000e-03
2.00000000e-03
2.00000000e-03
2.00000000e-03
2.00000000e-03
2.00000000e-03
2.00000000e-03
2.00000000e-03
2.00000000e-03
2.00000000e-03
2.00000000e-03
2.00000000e-03
2.00000000e-03
2.00000000e-03
2.00000000e-03
2.00000000e-03
2.00000000e-03
2.00000000e-03
2.00000000e-03
2.00000000e-03
2.00000000e-03
2.00000000e-03
2.00000000e-03
2.00000000e-03
2.00000000e-03
2.00000000e-03
2.00000000e-03
2.00000000e-03
2.00000000e-03
2.00000000e-03
2.00000000e-03
2.00000000e-03
2.00000000e-03
2.00000000e-03
2.00000000e-03
2.00000000e-03
2.00000000e-03
2.00000000e-03
2.00000000e-03
2.00000000e-03
2.00000000e-03
2.00000000e-03
2.00000000e-03
2.00000000e-03
2.00000000e-03
2.00000000e-03
2.00000000e-03
2.00000000e-03
2.00000000e-03
2.00000000e-03
2.00000000e-03
2.00000000e-03
2.00000000e-03
2.00000000e-03
2.00000000e-03
2.00000000e-03
2.00000000e-03
2.00000000e-03
2.00000000e-03
2.00000000e-03
2.00000000e-03
2.00000000e-03
2.00000000e-03
2.00000000e-03
2.00000000e-03
2.00000000e-03
2.00000000e-03
2.00000000e-03
2.00000000e-03
2.00000000e-03
2.00000000e-03
2.00000000e-03
2.00000000e-03
2.00000000e-03
2.00000000e-03
2.00000000e-03
2.00000000e-03
2.00000000e-03
2.00000000e-03
2.00000000e-03
2.00000000e-03
2.00000000e-03
2.00000000e-03
2.00000000e-03
2.00000000e-03
2.00000000e-03
2.00000000e-03
2.00000000e-03
2.00000000e-03
2.00000000e-03
2.00000000e-03
2.00000000e-03
2.00000000e-03
2.00000000e-03
2.00000000e-03
2.00000000e-03
2.00000000e-03
2.00000000e-03
2.00000000e-03
2.00000000e-03
2.00000000e-03
2.00000000e-03
2.00000000e-03
2.00000000e-03
2.00000000e-03
2.00000000e-03
2.00000000e-03
2.00000000e-03
2.00000000e-03
2.00000000e-03
2.00000000e-03
2.00000000e-03
2.00000000e-03
2.00000000e-03
2.00000000e-03
2.00000000e-03
2.00000000e-03
2.00000000e-03
2.00000000e-03
2.00000000e-03
2.00000000e-03
2.00000000e-03
2.00000000e-03
2.00000000e-03
2.00000000e-03
2.00000000e-03
2.00000000e-03
2.00000000e-03
2.00000000e-03
2.00000000e-03
2.00000000e-03
2.00000000e-03
2.00000000e-03
2.00000000e-03
2.00000000e-03
2.00000000e-03
2.00000000e-03
2.00000000e-03
2.00000000e-03
2.00000000e-03
2.00000000e-03
2.00000000e-03
2.00000000e-03
2.00000000e-03
2.00000000e-03
2.00000000e-03
2.00000000e-03
2.00000000e-03
2.00000000e-03
2.00000000e-03
2.00000000e-03
2.00000000e-03
2.00000000e-03
2.00000000e-03
2.00000000e-03
2.00000000e-03
