# vtk DataFile Version 2.0
Particle data
ASCII
DATASET POLYDATA
POINTS 469 double
3.30213309e-02	8.44428175e-03	9.12840883e-03
3.25602246e-02	-7.26555706e-04	1.42244481e-02
2.82410439e-02	-1.06378598e-02	6.16320537e-03
8.90804977e-04	-3.19975988e-02	1.02712713e-02
2.33780064e-02	-4.99117783e-03	2.25424062e-03
3.57669007e-02	1.43477694e-02	3.28667321e-03
3.27246881e-02	7.05074661e-03	1.18933948e-02
6.61470934e-03	-2.76289251e-02	1.77856669e-02
3.60838013e-02	-9.72519866e-03	1.80482701e-02
1.13485358e-02	-3.73155735e-02	1.75686800e-02
3.25482799e-02	2.07164162e-02	1.74262085e-02
3.15075632e-02	6.66123541e-04	1.77294130e-02
3.32852195e-02	-2.32635552e-02	1.20105693e-02
2.56392151e-02	-8.41278757e-03	3.78678403e-03
3.46733772e-02	1.72481416e-02	1.51810262e-02
5.75340393e-03	-3.91506590e-02	9.97191907e-03
9.36453059e-03	-2.46017078e-02	7.05744200e-03
3.52473495e-02	-2.90383816e-03	2.08205804e-03
7.70772969e-03	-2.70383435e-02	1.34897684e-02
2.56446603e-02	1.07145447e-02	1.02981937e-02
2.16225399e-02	8.47783246e-03	2.08931624e-03
3.50417139e-02	-1.19163193e-02	1.77097314e-02
-3.08670663e-03	-4.00415259e-02	2.20546583e-03
1.70750593e-02	-1.44432111e-02	2.05120987e-03
2.33473804e-02	-1.15641741e-02	1.95113244e-03
1.25534068e-02	-3.54048673e-02	8.87429431e-03
-3.44372381e-03	-2.21642658e-02	1.26815707e-02
3.55827592e-02	-7.65055192e-03	1.36089495e-02
-5.88937459e-03	-3.39028775e-02	9.62226186e-03
1.01304615e-02	-2.43293844e-02	1.47807488e-02
3.22398702e-02	-7.45268870e-03	1.10065584e-02
3.95392288e-02	-1.42900251e-04	2.08740376e-03
3.42823774e-02	-9.73444328e-04	5.62580667e-03
2.41317001e-02	-1.66304162e-02	1.80528377e-02
2.31931324e-02	-3.33461375e-02	1.12431459e-02
3.10304336e-02	-1.14825216e-02	1.16407642e-02
3.51765106e-02	1.29050947e-02	7.25556589e-03
-1.11388657e-02	-3.34101339e-02	1.07292140e-02
3.14789947e-02	2.54723156e-03	1.14360806e-02
1.86913205e-02	-1.06347156e-02	2.29614826e-03
-5.01013662e-03	-2.85834613e-02	1.04581458e-02
3.88230117e-02	-1.29468629e-03	1.49489948e-02
2.22023817e-02	-3.29785656e-02	2.24684976e-03
1.85792671e-02	-5.54309297e-03	1.76347019e-02
1.71361553e-02	-2.48856432e-02	1.66920962e-02
1.43524392e-02	-2.84428116e-03	1.24849088e-02
1.82186213e-02	-5.48041828e-03	1.35052405e-02
2.40571188e-03	-1.96663320e-02	1.07469488e-02
5.49857281e-03	-2.52029890e-02	1.09734967e-02
2.59821257e-02	6.98650063e-03	1.70964510e-02
6.80427131e-03	-2.69546091e-02	2.37135312e-03
1.00172392e-02	-2.06413699e-02	8.89495990e-03
-1.55113439e-02	-3.37575297e-02	1.17748877e-02
9.43604906e-03	-2.38226188e-02	3.23676087e-03
7.65276403e-03	-3.73582049e-02	1.09369419e-02
-1.49539433e-03	-3.25399824e-02	1.53503165e-02
9.68358157e-03	-3.95783367e-02	9.14554315e-03
1.62081019e-02	-1.66634783e-03	1.38057879e-02
2.34796353e-02	-2.79575505e-02	1.48892115e-02
1.69893752e-02	-2.74281237e-02	1.50876441e-02
2.57459050e-02	-2.61494552e-02	1.77570328e-02
2.33059575e-02	-1.97815454e-02	1.06875459e-02
2.03364389e-02	-1.11124097e-02	1.82498643e-02
-9.33283741e-04	-3.62781316e-02	9.53001563e-03
3.13341873e-02	-1.33593306e-02	4.41247324e-03
2.65173480e-02	1.60903728e-02	1.06152313e-02
1.86205947e-02	-3.54883186e-02	3.84535565e-03
3.21076199e-02	-1.07915046e-03	1.83959181e-02
1.71426942e-02	-3.35683471e-02	6.31042113e-03
3.25703571e-02	-2.34745139e-02	9.82221061e-03
2.19822639e-03	-1.68785042e-02	3.62327998e-03
3.68409876e-02	-1.17375451e-02	2.56389341e-03
3.29314855e-02	1.34272212e-02	1.83932996e-02
-2.92195114e-03	-1.97807356e-02	8.94256450e-03
3.91243528e-02	5.30157991e-03	6.26700568e-03
1.35487269e-03	-2.07180186e-02	1.70267467e-02
5.45538758e-03	-2.67131344e-02	7.30944581e-03
2.73769873e-02	1.72787786e-03	1.01278960e-02
3.14890426e-02	-2.40434918e-02	1.77624383e-02
5.00976569e-03	-3.84387894e-02	1.79051025e-02
1.14889299e-02	-8.36679604e-03	8.52034301e-03
2.53916291e-02	-1.85665506e-02	6.91979291e-03
2.32798185e-02	-1.96987578e-02	2.17130839e-03
1.95025215e-02	-2.15098907e-02	1.79312046e-02
2.44669863e-02	-2.27039578e-02	2.15706285e-03
2.10236093e-02	1.40634746e-02	1.87348828e-03
3.60419958e-02	1.81247763e-03	1.41238505e-02
5.73834938e-04	-4.00681540e-02	1.10741134e-02
2.94669447e-02	-2.22661305e-02	6.41317858e-03
1.38918253e-02	-3.14490446e-02	4.44742211e-03
4.86071135e-03	-1.04122149e-02	5.85723511e-03
2.70962888e-02	5.33417639e-03	1.68859306e-03
3.63955253e-02	-1.12275992e-02	6.41099978e-03
-6.88980332e-03	-1.94169620e-02	2.96650437e-03
2.93566261e-02	-7.06720777e-03	6.75720026e-03
3.82448527e-02	-1.22010048e-02	8.07986300e-03
-1.65118052e-03	-3.96195496e-02	6.06683750e-03
1.44404272e-02	-3.39057190e-02	1.30408529e-02
2.38169658e-02	-1.11369900e-02	1.83948228e-02
2.47242535e-02	-9.39213927e-03	7.48331600e-03
1.23678675e-02	-3.08958720e-02	7.80530918e-03
1.43913793e-02	-2.99476715e-02	1.15414925e-02
-8.32204424e-03	-3.42629565e-02	1.63016365e-02
3.46480511e-02	-1.94962783e-02	1.69412424e-02
1.67757003e-02	-2.95917664e-02	7.23751381e-03
7.75605789e-03	-1.40906638e-02	2.55286953e-03
1.34035955e-02	-2.23407684e-02	6.72819949e-03
1.15570820e-02	-2.76679935e-02	5.24185201e-03
1.48211257e-02	-3.41661802e-02	1.53255140e-03
2.58759058e-02	-1.12173307e-04	5.15755683e-03
8.06505041e-03	-3.78111210e-02	2.25310681e-03
1.79332795e-02	4.19265977e-03	1.73392210e-02
1.00708981e-02	-1.13475309e-02	1.45341816e-02
2.36245774e-03	-3.33342045e-02	2.06908815e-03
2.63884194e-02	-2.02382336e-02	1.46260013e-02
1.84498467e-02	-2.86853246e-02	1.96586539e-03
-1.41810922e-02	-2.73146884e-02	1.38887056e-02
9.39655150e-03	-3.81859614e-02	5.44116006e-03
2.90604333e-02	-5.27762458e-03	1.02934388e-02
3.88621281e-02	2.88277859e-04	7.50169699e-03
2.72821032e-02	1.12759321e-02	1.92435690e-03
1.91931382e-02	-1.39055917e-02	1.48320738e-02
2.97767615e-02	2.02132254e-02	1.71835653e-02
3.03097734e-02	-2.72439503e-02	5.42763611e-03
3.66141243e-02	-1.71824472e-02	1.82028437e-02
2.40685955e-02	1.21863706e-02	6.59698752e-03
3.71531581e-02	9.97125808e-03	6.31941227e-03
3.19826680e-02	3.21509098e-03	7.76271130e-03
-1.75287877e-03	-3.26818966e-02	1.15583321e-02
4.52639272e-03	-2.04255970e-02	1.93658929e-03
8.57312004e-04	-2.78413605e-02	3.63711210e-03
3.66317563e-02	-1.69465923e-02	4.84609360e-03
1.80028493e-02	3.44437865e-04	1.76972560e-02
3.69213415e-02	2.01626437e-04	1.38411021e-02
1.69449666e-02	-1.33129413e-02	8.23876662e-03
2.79197957e-02	-2.81870987e-02	1.38089523e-02
3.20438476e-02	-4.38328359e-03	4.06629795e-03
3.32651765e-02	1.03897297e-02	2.00289477e-03
1.53759473e-02	-2.01247073e-02	1.12286952e-02
5.52588405e-03	-2.47712170e-02	1.63886947e-02
2.38696725e-02	-2.35978170e-02	1.52067315e-02
2.54941046e-02	1.34237117e-02	3.78504501e-03
2.18645825e-02	5.48328908e-03	1.27195148e-02
-1.38573133e-02	-3.29593519e-02	2.82381963e-03
2.93943146e-02	6.31368014e-03	9.10259159e-03
2.68127941e-02	1.60314270e-02	1.92397605e-03
1.00583521e-03	-4.03794451e-02	2.18600120e-03
3.13132343e-02	1.62933797e-02	2.14078482e-03
1.85465409e-02	-1.61145012e-02	8.40707491e-03
1.26840817e-02	-3.06002691e-02	1.54063872e-02
2.12797930e-02	8.83125530e-04	7.64915812e-03
1.67786521e-02	-2.29805038e-02	8.35993482e-03
3.85412755e-02	7.64498621e-03	1.22919145e-02
8.84158512e-03	-5.41956647e-03	1.49196724e-02
2.86068150e-03	-3.04813873e-02	8.95277356e-03
2.57551895e-03	-3.47579123e-02	1.37683377e-02
3.85523470e-02	7.42986030e-03	3.94666822e-03
2.07370490e-02	-7.81273927e-03	5.32390470e-03
3.18636094e-02	-2.31997449e-02	1.46468220e-02
2.38777365e-02	9.07962202e-04	2.01155543e-03
3.51946613e-02	-7.76845390e-03	7.71589300e-03
3.75552073e-02	1.20076831e-02	1.78266419e-03
2.83485320e-02	-2.54254104e-02	9.41363993e-03
-5.31187016e-03	-3.34840401e-02	1.82395523e-02
2.02571593e-02	-1.70530500e-02	2.27759319e-03
2.92882671e-02	-3.37384918e-04	1.26875653e-02
2.24665924e-03	-2.68586362e-02	6.28197180e-03
2.75187854e-02	1.46751654e-02	6.23618831e-03
-1.56738694e-03	-3.56512005e-02	1.78064319e-02
4.20145647e-03	-3.90987882e-02	6.03388050e-03
3.66772419e-02	1.13430094e-02	1.03720907e-02
1.82333748e-02	-3.23272846e-02	1.04186967e-02
5.20732703e-03	-1.63365423e-02	1.34230314e-02
3.27048652e-02	2.21101330e-03	1.52329727e-02
2.69894581e-02	9.21035673e-03	6.64765203e-03
3.57406357e-02	4.44850823e-03	1.16517851e-02
3.89082776e-02	-4.16709409e-03	1.68561869e-03
3.17832149e-02	-1.67965355e-02	1.81050337e-02
3.97219372e-02	5.73013457e-03	1.80358028e-02
2.08022988e-02	-1.91397931e-02	6.95588063e-03
-4.94953718e-03	-3.29054051e-02	4.99928782e-03
2.60566643e-02	-2.12903439e-02	4.94653706e-03
2.81872797e-02	4.91271412e-03	1.89231737e-02
-8.40756046e-03	-3.79251166e-02	1.39540304e-02
2.66499975e-02	-1.36083462e-02	1.20729350e-02
3.97363346e-02	5.78471457e-03	9.61977372e-03
2.96375834e-02	1.17244420e-02	1.39687118e-02
3.90019555e-02	-6.06175944e-03	1.44139470e-02
2.21043551e-02	-2.72970569e-03	1.78058628e-02
3.91412133e-02	3.53914225e-03	1.63230258e-03
5.53504592e-03	-3.76155572e-02	1.52348723e-02
2.29580050e-02	-1.80538247e-02	1.43779592e-02
-2.53974566e-03	-4.00926764e-02	1.54059650e-02
-1.60938541e-02	-3.50834746e-02	1.61747198e-02
2.25277275e-02	-1.12993545e-02	5.81138825e-03
2.47914363e-03	-2.80016391e-02	1.49747480e-02
2.99764051e-02	-1.67981348e-02	1.04897511e-02
9.17488443e-03	-2.91162340e-02	8.84950736e-03
1.67715127e-02	-4.79933040e-03	9.01342807e-03
1.34976073e-02	-3.38915577e-02	1.81263065e-02
3.96113395e-03	-6.85720600e-03	1.15390766e-02
9.43029816e-03	-6.04991519e-03	1.04702078e-02
2.56729639e-04	-3.94188057e-02	1.78606765e-02
3.61430712e-02	-1.73412985e-02	1.14709210e-02
1.10174704e-02	-3.62402524e-02	1.45809164e-02
9.25716950e-03	-1.24621470e-02	6.57149937e-03
-3.20087995e-03	-2.86150253e-02	1.41455983e-02
-3.17837307e-03	-2.43964161e-02	8.47027194e-03
3.21986437e-02	-6.43622370e-03	1.41301554e-02
-1.24738901e-04	-2.73709207e-02	1.12409859e-02
2.46612889e-02	-3.22030396e-02	1.53515522e-02
1.46190492e-02	-2.76059471e-02	2.17471151e-03
2.03671553e-02	-3.09276120e-02	1.42864417e-02
1.99420821e-02	-2.63117798e-02	1.42054609e-02
3.37880301e-02	-2.03594714e-03	1.49001498e-02
2.75041786e-02	-1.20741133e-02	2.28342791e-03
[...]
POINT_DATA 469
SCALARS Radius double 1
LOOKUP_TABLE default
2.00000000e-03
2.00000000e-03
2.00000000e-03
2.00000000e-03
2.00000000e-03
2.00000000e-03
2.00000000e-03
2.00000000e-03
2.00000000e-03
2.00000000e-03
2.00000000e-03
2.00000000e-03
2.00000000e-03
2.00000000e-03
2.00000000e-03
2.00000000e-03
2.00000000e-03
2.00000000e-03
2.00000000e-03
2.00000000e-03
2.00000000e-03
2.00000000e-03
2.00000000e-03
2.00000000e-03
2.00000000e-03
2.00000000e-03
2.00000000e-03
2.00000000e-03
2.00000000e-03
2.00000000e-03
2.00000000e-03
2.00000000e-03
2.00000000e-03
2.00000000e-03
2.00000000e-03
2.00000000e-03
2.00000000e-03
2.00000000e-03
2.00000000e-03
2.00000000e-03
2.00000000e-03
2.00000000e-03
2.00000000e-03
2.00000000e-03
2.00000000e-03
2.00000000e-03
2.00000000e-03
2.00000000e-03
2.00000000e-03
2.00000000e-03
2.00000000e-03
2.00000000e-03
2.00000000e-03
2.00000000e-03
2.00000000e-03
2.00000000e-03
2.00000000e-03
2.00000000e-03
2.00000000e-03
2.00000000e-03
2.00000000e-03
2.00000000e-03
2.00000000e-03
2.00000000e-03
2.00000000e-03
2.00000000e-03
2.00000000e-03
2.00000000e-03
2.00000000e-03
2.00000000e-03
2.00000000e-03
2.00000000e-03
2.00000000e-03
2.00000000e-03
2.00000000e-03
2.00000000e-03
2.00000000e-03
2.00000000e-03
2.00000000e-03
2.00000000e-03
2.00000000e-03
2.00000000e-03
2.00000000e-03
2.00000000e-03
2.00000000e-03
2.00000000e-03
2.00000000e-03
2.00000000e-03
2.00000000e-03
2.00000000e-03
2.00000000e-03
2.00000000e-03
2.00000000e-03
2.00000000e-03
2.00000000e-03
2.00000000e-03
2.00000000e-03
2.00000000e-03
2.00000000e-03
2.00000000e-03
2.00000000e-03
2.00000000e-03
2.00000000e-03
2.00000000e-03
2.00000000e-03
2.00000000e-03
2.00000000e-03
2.00000000e-03
2.00000000e-03
2.00000000e-03
2.00000000e-03
2.00000000e-03
2.00000000e-03
2.00000000e-03
2.00000000e-03
2.00000000e-03
2.00000000e-03
2.00000000e-03
2.00000000e-03
2.00000000e-03
2.00000000e-03
2.00000000e-03
2.00000000e-03
2.00000000e-03
2.00000000e-03
2.00000000e-03
2.00000000e-03
2.00000000e-03
2.00000000e-03
2.00000000e-03
2.00000000e-03
2.00000000e-03
2.00000000e-03
2.00000000e-03
2.00000000e-03
2.00000000e-03
2.00000000e-03
2.00000000e-03
2.00000000e-03
2.00000000e-03
2.00000000e-03
2.00000000e-03
2.00000000e-03
2.00000000e-03
2.00000000e-03
2.00000000e-03
2.00000000e-03
2.00000000e-03
2.00000000e-03
2.00000000e-03
2.00000000e-03
2.00000000e-03
2.00000000e-03
2.00000000e-03
2.00000000e-03
2.00000000e-03
2.00000000e-03
2.00000000e-03
2.00000000e-03
2.00000000e-03
2.00000000e-03
2.00000000e-03
2.00000000e-03
2.00000000e-03
2.00000000e-03
2.00000000e-03
2.00000000e-03
2.00000000e-03
2.00000000e-03
2.00000000e-03
2.00000000e-03
2.00000000e-03
2.00000000e-03
2.00000000e-03
2.00000000e-03
2.00000000e-03
2.00000000e-03
2.00000000e-03
2.00000000e-03
2.00000000e-03
2.00000000e-03
2.00000000e-03
2.00000000e-03
2.00000000e-03
2.00000000e-03
2.00000000e-03
2.00000000e-03
2.00000000e-03
2.00000000e-03
2.00000000e-03
2.00000000e-03
2.00000000e-03
2.00000000e-03
2.00000000e-03
2.00000000e-03
2.00000000e-03
2.00000000e-03
2.00000000e-03
2.00000000e-03
2.00000000e-03
2.00000000e-03
2.00000000e-03
2.00000000e-03
2.00000000e-03
2.00000000e-03
2.00000000e-03
2.00000000e-03
2.00000000e-03
2.00000000e-03
2.00000000e-03
2.00000000e-03
2.00000000e-03
2.00000000e-03
2.00000000e-03
2.00000000e-03
2.00000000e-03
2.00000000e-03
2.00000000e-03
2.00000000e-03
2.00000000e-03
2.00000000e-03
2.00000000e-03
2.00000000e-03
2.00000000e-03
2.00000000e-03
2.00000000e-03
2.00000000e-03
2.00000000e-03
2.00000000e-03
2.00000000e-03
2.00000000e-03
2.00000000e-03
2.00000000e-03
2.00000000e-03
2.00000000e-03
2.00000000e-03
2.00000000e-03
2.00000000e-03
2.00000000e-03
2.00000000e-03
2.00000000e-03
2.00000000e-03
2.00000000e-03
2.00000000e-03
2.00000000e-03
2.00000000e-03
2.00000000e-03
2.00000000e-03
2.00000000e-03
2.00000000e-03
2.00000000e-03
2.00000000e-03
2.00000000e-03
2.00000000e-03
2.00000000e-03
2.00000000e-03
2.00000000e-03
2.00000000e-03
2.00000000e-03
2.00000000e-03
2.00000000e-03
2.00000000e-03
2.00000000e-03
2.00000000e-03
2.00000000e-03
2.00000000e-03
2.00000000e-03
2.00000000e-03
2.00000000e-03
2.00000000e-03
2.00000000e-03
2.00000000e-03
2.00000000e-03
2.00000000e-03
2.00000000e-03
2.00000000e-03
2.00000000e-03
2.00000000e-03
2.00000000e-03
2.00000000e-03
2.00000000e-03
2.00000000e-03
2.00000000e-03
2.00000000e-03
2.00000000e-03
2.00000000e-03
2.00000000e-03
2.00000000e-03
2.00000000e-03
2.00000000e-03
2.00000000e-03
2.00000000e-03
2.00000000e-03
2.00000000e-03
2.00000000e-03
2.00000000e-03
2.00000000e-03
2.00000000e-03
2.00000000e-03
2.00000000e-03
2.00000000e-03
2.00000000e-03
2.00000000e-03
2.00000000e-03
2.00000000e-03
2.00000000e-03
2.00000000e-03
2.00000000e-03
2.00000000e-03
2.00000000e-03
2.00000000e-03
2.00000000e-03
2.00000000e-03
2.00000000e-03
2.00000000e-03
2.00000000e-03
2.00000000e-03
2.00000000e-03
2.00000000e-03
2.00000000e-03
2.00000000e-03
2.00000000e-03
2.00000000e-03
2.00000000e-03
2.00000000e-03
2.00000000e-03
2.00000000e-03
2.00000000e-03
2.00000000e-03
2.00000000e-03
2.00000000e-03
2.00000000e-03
2.00000000e-03
2.00000000e-03
2.00000000e-03
2.00000000e-03
2.00000000e-03
2.00000000e-03
2.00000000e-03
2.00000000e-03
2.00000000e-03
2.00000000e-03
2.00000000e-03
2.00000000e-03
2.00000000e-03
2.00000000e-03
2.00000000e-03
2.00000000e-03
2.00000000e-03
2.00000000e-03
2.00000000e-03
2.00000000e-03
2.00000000e-03
2.00000000e-03
2.00000000e-03
2.00000000e-03
2.00000000e-03
2.00000000e-03
2.00000000e-03
2.00000000e-03
2.00000000e-03
2.00000000e-03
2.00000000e-03
2.00000000e-03
2.00000000e-03
2.00000000e-03
2.00000000e-03
2.00000000e-03
2.00000000e-03
2.00000000e-03
2.00000000e-03
2.00000000e-03
2.00000000e-03
2.00000000e-03
2.00000000e-03
2.00000000e-03
2.00000000e-03
2.00000000e-03
2.00000000e-03
2.00000000e-03
2.00000000e-03
2.00000000e-03
2.00000000e-03
2.00000000e-03
2.00000000e-03
2.00000000e-03
2.00000000e-03
2.00000000e-03
2.00000000e-03
2.00000000e-03
2.00000000e-03
2.00000000e-03
2.00000000e-03
2.00000000e-03
2.00000000e-03
2.00000000e-03
2.00000000e-03
2.00000000e-03
2.00000000e-03
2.00000000e-03
2.00000000e-03
2.00000000e-03
2.00000000e-03
2.00000000e-03
2.00000000e-03
2.00000000e-03
2.00000000e-03
2.00000000e-03
2.00000000e-03
2.00000000e-03
2.00000000e-03
2.00000000e-03
2.00000000e-03
2.00000000e-03
2.00000000e-03
2.00000000e-03
2.00000000e-03
2.00000000e-03
2.00000000e-03
2.00000000e-03
2.00000000e-03
2.00000000e-03
2.00000000e-03
2.00000000e-03
2.00000000e-03
2.00000000e-03
2.00000000e-03
2.00000000e-03
2.00000000e-03
2.00000000e-03
2.00000000e-03
2.00000000e-03
2.00000000e-03
2.00000000e-03
2.00000000e-03
2.00000000e-03
2.00000000e-03
2.00000000e-03
2.00000000e-03
2.00000000e-03
2.00000000e-03
2.00000000e-03
2.00000000e-03
2.00000000e-03
2.00000000e-03
2.00000000e-03
2.00000000e-03
2.00000000e-03
2.00000000e-03
2.00000000e-03
2.00000000e-03
2.00000000e-03
2.00000000e-03
2.00000000e-03
2.00000000e-03
2.00000000e-03
2.00000000e-03
2.00000000e-03
2.00000000e-03
2.00000000e-03
2.00000000e-03
2.00000000e-03
2.00000000e-03
2.00000000e-03
2.00000000e-03
2.00000000e-03
2.00000000e-03
2.00000000e-03
2.00000000e-03
