# vtk DataFile Version 2.0
Particle data
ASCII
DATASET POLYDATA
POINTS 469 double
3.32571229e-02	-1.51286370e-02	1.52468845e-02
2.70109523e-02	-1.15326944e-02	1.25164410e-02
1.45288414e-02	-3.68206002e-02	1.49284971e-02
2.69242820e-02	1.24759395e-02	6.44112495e-03
2.91411720e-02	-6.15788548e-03	1.93589188e-03
2.79472114e-02	-2.25979091e-02	2.11422129e-03
2.61190435e-02	-2.98017226e-02	1.83887585e-02
1.24401616e-02	-8.32224159e-03	1.78540984e-02
5.33931605e-04	-4.11003304e-02	1.72368554e-02
1.87293153e-02	8.66634116e-03	1.63179026e-02
3.42931617e-02	-1.24977539e-02	8.57557349e-03
2.43172391e-02	-1.93409801e-02	1.83357829e-02
-1.00340154e-02	-3.50770695e-02	7.54856131e-03
2.09784457e-02	-1.56902559e-02	4.62021201e-03
3.56479130e-02	-5.00019808e-03	1.39091861e-02
3.08957117e-02	2.24795791e-02	1.05121094e-02
1.37148566e-02	-1.70482424e-02	6.99435594e-03
2.20464977e-02	-2.47130311e-02	2.25178101e-03
1.84121274e-02	-4.49134161e-03	1.19202382e-02
3.44492567e-02	-1.92092252e-02	5.31517956e-03
3.50568965e-02	-9.28561430e-03	2.27585425e-03
6.86117713e-03	-3.84703804e-02	1.78782532e-02
3.50697838e-02	1.44532700e-02	1.41670241e-03
1.56343772e-02	-3.42662390e-02	5.43119643e-03
2.10252795e-02	-2.82842650e-02	5.70492734e-03
1.02795187e-02	-3.44904400e-03	1.19891505e-02
4.03303591e-02	1.14558831e-03	1.43816699e-02
1.84766944e-02	-2.96634383e-02	1.78380334e-02
3.43584519e-02	1.05104202e-02	1.14737356e-02
1.43572586e-03	-2.40269228e-02	1.83525310e-02
2.52874290e-02	-1.71652869e-02	8.38139735e-03
2.27550627e-03	-4.07435958e-02	9.12508230e-03
2.25128348e-02	-2.20115701e-02	8.57811571e-03
1.16284521e-02	-2.81960406e-02	1.56324871e-02
-4.23012665e-03	-2.73284045e-02	6.98228599e-03
1.72495843e-02	-2.23405049e-02	1.40320738e-02
3.57217654e-02	-1.80009246e-02	9.51766321e-03
3.98234719e-02	7.57765399e-03	1.00136059e-02
2.57375235e-02	-2.21847466e-02	1.37136808e-02
3.02877645e-02	-1.42596319e-02	4.95879217e-03
3.58915837e-02	7.13780930e-03	1.17637871e-02
1.72930371e-02	-3.14890875e-02	1.57177761e-02
4.26400977e-03	-1.94558395e-02	3.16980266e-03
3.31667012e-02	-1.60971336e-02	1.74629376e-02
1.26874989e-02	-2.11200082e-02	1.54456303e-02
3.53014145e-02	-6.45194688e-03	1.18259635e-02
2.51305519e-02	-5.38306183e-03	1.03206201e-02
3.61368709e-02	-3.90065173e-04	1.40507042e-02
2.06374923e-02	-7.22530941e-03	9.04357718e-03
3.75074804e-02	-1.60296901e-02	1.83337156e-02
2.36896707e-02	1.97546033e-03	2.07542295e-03
2.59225914e-02	-3.43204643e-03	9.04431147e-03
3.94392930e-02	1.57976618e-03	1.24344121e-02
1.38160148e-02	-1.16508106e-02	2.25644279e-03
2.05460613e-02	1.04864119e-02	9.80257491e-03
2.98868241e-02	1.82738422e-02	1.36419362e-02
2.49649641e-02	1.36840997e-02	9.89341815e-03
3.41918436e-02	-1.89105749e-03	1.81009027e-02
2.59635199e-03	-2.79722189e-02	1.41452176e-02
3.49244519e-03	-2.19061980e-02	1.42515336e-02
5.96147072e-04	-3.22952424e-02	1.29828441e-02
1.48072407e-02	-2.47316693e-02	1.25253241e-02
1.94071075e-02	-1.11092037e-02	1.76208335e-02
3.22156001e-02	1.56555352e-02	8.16420330e-03
1.69931899e-02	-2.71838762e-02	4.50321582e-03
3.39489240e-02	-5.12893074e-03	6.37633778e-03
1.32271369e-02	-4.08749635e-03	3.85711256e-03
2.18317233e-02	-2.55831059e-02	1.54124900e-02
6.65933138e-03	-1.58271821e-02	6.75764581e-03
-3.40422139e-03	-3.57066641e-02	3.28454997e-03
3.58725424e-02	7.28929342e-03	8.53733998e-03
1.07048706e-03	-3.99783925e-02	4.93388556e-03
3.77768026e-02	-1.50458561e-02	1.76969666e-02
3.46124388e-02	-1.57840884e-02	1.38679818e-02
1.43464574e-02	-3.91669716e-02	3.40973973e-03
3.26940481e-02	7.22138368e-03	1.73943593e-02
1.30784824e-03	-2.58696035e-02	5.81746863e-03
3.09854079e-02	-2.49247106e-02	5.55738366e-03
-9.85683471e-03	-3.61948782e-02	1.86984504e-02
3.09969381e-02	2.11556069e-02	1.76925971e-02
3.33792906e-02	-1.17636322e-03	1.05791611e-02
1.93928357e-02	-1.25298051e-02	7.99588518e-03
6.75668855e-03	-2.54228370e-02	7.96018711e-03
1.08263688e-02	-2.57832169e-02	1.82316309e-02
2.13057168e-03	-3.32187715e-02	3.27984338e-03
3.86060687e-02	-1.14858005e-02	3.01239859e-03
2.49202713e-02	-1.14510557e-02	1.79248579e-02
3.39218066e-02	1.74953317e-02	1.03822264e-02
1.28347042e-02	-2.79657001e-02	6.55570240e-03
1.13848207e-02	-1.38019504e-02	5.22926545e-03
3.92622416e-02	-2.70130238e-03	1.11969980e-02
3.44649202e-02	-9.14422546e-03	4.24165657e-03
8.21390234e-03	-3.95836053e-02	9.55172878e-03
3.98272429e-02	-3.87727190e-04	1.39002281e-03
2.06880072e-02	-2.28530790e-02	1.13107671e-02
-1.93691357e-03	-3.91653213e-02	1.74600848e-02
3.55243070e-02	1.55425883e-02	6.62440303e-03
3.96084526e-03	-1.65396678e-02	1.26217731e-02
1.12031062e-02	-3.12077343e-02	1.08290456e-02
2.60804875e-02	-2.24894256e-02	1.02465732e-02
4.57892707e-03	-1.97717337e-02	9.18975359e-03
1.95848851e-02	-9.95791836e-04	1.25776994e-02
3.47356445e-02	7.95795461e-03	1.59010798e-02
2.92495809e-03	-3.51975288e-02	1.61330139e-02
-1.41248195e-03	-2.84551949e-02	1.55318067e-02
3.87639739e-02	-9.26169159e-03	1.20052629e-02
1.59215550e-02	-1.96887085e-02	7.30136077e-03
3.68532291e-03	-2.32657753e-02	1.00324839e-02
1.77088850e-02	2.67315556e-03	3.19064980e-03
3.06097804e-02	-1.00692359e-02	9.41386295e-03
2.61181402e-02	1.79870928e-02	3.03977070e-03
3.63816508e-02	-3.91931689e-03	1.79749810e-02
3.13205701e-02	2.24192240e-03	1.78485345e-02
2.35236308e-02	1.29647876e-02	1.40930388e-03
-4.00002363e-03	-3.55165007e-02	1.69836340e-02
-5.82641371e-03	-2.45162223e-02	1.89660600e-03
3.83117925e-02	-6.20844565e-03	1.50370926e-02
2.79807567e-02	2.37821739e-02	5.93408914e-03
2.28481916e-02	-1.33385574e-02	5.42414942e-03
2.32238504e-02	-3.26495923e-02	2.88399131e-03
3.54717177e-02	4.02521925e-04	2.23040685e-03
8.79939137e-03	-3.00433398e-02	1.24192910e-02
3.34781837e-02	-2.32578012e-02	1.67216518e-02
-6.89750709e-03	-3.09094281e-02	2.69791386e-03
5.04033335e-03	-4.06614890e-02	1.78615263e-02
3.91512713e-02	-1.21484537e-02	1.44539877e-02
2.69828234e-02	-2.71713423e-02	5.41539559e-03
2.76918776e-02	-2.56501087e-02	1.13457508e-02
3.22808443e-02	1.95077373e-02	1.01429487e-02
2.93786230e-02	1.75934148e-03	1.88147360e-03
2.92575243e-02	1.51415150e-02	1.52020852e-03
-3.44148149e-03	-3.87244632e-02	9.94338792e-03
3.22119864e-02	-7.02932102e-03	1.99825953e-02
2.35386133e-02	-3.25791175e-02	8.05223481e-03
1.88226020e-02	-1.59156077e-02	4.80367091e-03
-2.00071381e-03	-2.72822134e-02	9.38108419e-03
2.38876309e-02	-1.68987862e-02	7.02806694e-03
2.89208819e-02	-2.63553621e-02	2.26385201e-03
2.48159008e-03	-3.55830729e-02	1.22476011e-02
1.88296449e-02	-4.50225986e-03	1.49988293e-02
-4.76954177e-03	-2.88853213e-02	1.82213637e-02
3.82785096e-02	-1.38041320e-02	1.03519472e-02
2.67433393e-02	4.83380837e-03	1.33013890e-02
4.16311706e-02	5.51350502e-03	1.64142114e-03
2.85016967e-02	-2.01393985e-02	6.08099803e-03
3.69180092e-02	-1.63715410e-02	2.89736313e-03
3.38106191e-02	2.05099476e-02	1.56833849e-03
3.03578403e-02	-1.40297410e-02	1.70335432e-03
1.89477947e-02	-1.64476811e-02	1.01773505e-02
6.86355211e-04	-2.00987713e-02	1.23095372e-02
3.02869907e-02	-3.11340979e-03	1.74051986e-02
1.23495116e-02	-2.28345388e-02	1.03885819e-02
2.70529701e-02	-2.41988346e-02	9.82466485e-03
3.27321450e-02	-2.07256843e-03	1.27562951e-02
2.37371247e-02	8.94383160e-04	5.26482473e-03
2.57434320e-02	1.43120681e-02	1.32235753e-02
2.51481942e-02	-2.72732332e-02	2.05106435e-03
2.51628077e-02	-5.56174429e-03	4.67739712e-03
-6.46358411e-03	-3.79089562e-02	1.82780528e-02
2.66618561e-02	-1.58096187e-02	4.93869807e-03
1.87395038e-02	-3.26958401e-02	8.93885973e-03
3.15479145e-02	-2.55070851e-02	2.68545680e-03
3.68402846e-03	-2.79306728e-02	6.74931676e-03
3.31402873e-02	1.08206617e-02	1.82838216e-02
9.02668137e-03	-2.37259246e-02	6.91448563e-03
2.74002991e-02	-1.50051649e-02	1.27293341e-02
2.20554922e-02	-1.56929948e-04	5.69709538e-03
2.89515090e-02	-2.65660218e-02	8.59242867e-03
3.15625295e-02	1.54828326e-02	1.83382268e-02
3.33505195e-02	1.79760378e-02	5.10602098e-03
2.20827528e-02	-3.22064373e-02	1.61750779e-02
-8.25301477e-03	-2.10645479e-02	4.28445975e-03
3.55966274e-02	1.32049409e-03	1.81460742e-02
2.58443067e-02	-1.40371877e-02	1.69457481e-02
3.52770888e-02	-1.96966693e-02	1.74602914e-02
1.25482258e-02	-3.75985706e-02	1.10349459e-02
1.50552329e-02	-2.62764692e-02	2.30113749e-03
-6.47033730e-04	-3.92700973e-02	1.00607039e-02
1.06834774e-02	-3.70298706e-02	1.55698250e-02
8.13593653e-03	-3.67445676e-02	5.26431857e-03
3.47855545e-02	7.84791364e-03	4.47195000e-03
1.77994649e-02	-2.29730584e-02	5.55483350e-03
4.05547538e-02	-7.32472015e-03	1.84932841e-02
3.63458305e-02	1.11052773e-02	1.54835070e-02
1.57375693e-02	-2.74909868e-02	1.85089308e-02
2.17303006e-02	-2.87971062e-02	1.01634384e-02
2.77592998e-02	-3.52108254e-03	2.28196240e-03
1.66305949e-02	-3.14820917e-02	1.19446063e-02
3.16957438e-02	-1.83267662e-02	1.81190101e-02
2.07202216e-02	-2.85707480e-02	2.65981994e-03
2.45240647e-02	1.73717980e-02	1.46680731e-02
1.20893598e-02	-2.01058620e-02	1.76869832e-02
3.41824495e-02	1.46058570e-02	1.43341075e-02
3.87176908e-02	4.32710303e-03	1.78645076e-02
2.52550637e-02	-7.93156749e-03	2.59972435e-03
2.51002596e-02	1.04418543e-02	1.25990869e-02
1.03754759e-02	-3.16840853e-02	1.42186196e-02
1.36642834e-02	-1.83049879e-02	1.06597599e-02
2.20744113e-02	-5.33303918e-03	7.54716188e-03
7.64488336e-03	-1.27263022e-02	1.76452913e-02
3.65919126e-02	-2.46847318e-03	1.40045535e-02
3.20993784e-02	-5.91061581e-04	1.56440281e-02
3.25104540e-02	1.80979344e-02	1.85165835e-02
4.86794100e-03	-3.75890429e-02	1.41463244e-02
1.33029040e-02	-2.35966186e-03	1.69079541e-02
3.13629032e-02	5.21608690e-04	8.70959056e-03
3.27141798e-02	8.74907273e-03	1.39262347e-02
3.95003926e-02	8.51635119e-03	5.61986088e-03
2.13348933e-02	-1.90661672e-02	1.53066084e-02
2.98974557e-02	1.14947318e-02	1.09803604e-02
1.53775400e-03	-2.53749566e-02	1.37084056e-02
8.92606170e-03	-1.77058636e-02	1.18585435e-03
-2.59081384e-03	-2.46374110e-02	1.29463683e-02
7.35777683e-03	-2.88283888e-02	1.50528115e-02
2.28016746e-02	-6.75406612e-03	1.46310396e-02
1.75532277e-02	-2.01043010e-02	2.59646279e-03
[...]
POINT_DATA 469
SCALARS Radius double 1
LOOKUP_TABLE default
2.00000000e-03
2.00000000e-03
2.00000000e-03
2.00000000e-03
2.00000000e-03
2.00000000e-03
2.00000000e-03
2.00000000e-03
2.00000000e-03
2.00000000e-03
2.00000000e-03
2.00000000e-03
2.00000000e-03
2.00000000e-03
2.00000000e-03
2.00000000e-03
2.00000000e-03
2.00000000e-03
2.00000000e-03
2.00000000e-03
2.00000000e-03
2.00000000e-03
2.00000000e-03
2.00000000e-03
2.00000000e-03
2.00000000e-03
2.00000000e-03
2.00000000e-03
2.00000000e-03
2.00000000e-03
2.00000000e-03
2.00000000e-03
2.00000000e-03
2.00000000e-03
2.00000000e-03
2.00000000e-03
2.00000000e-03
2.00000000e-03
2.00000000e-03
2.00000000e-03
2.00000000e-03
2.00000000e-03
2.00000000e-03
2.00000000e-03
2.00000000e-03
2.00000000e-03
2.00000000e-03
2.00000000e-03
2.00000000e-03
2.00000000e-03
2.00000000e-03
2.00000000e-03
2.00000000e-03
2.00000000e-03
2.00000000e-03
2.00000000e-03
2.00000000e-03
2.00000000e-03
2.00000000e-03
2.00000000e-03
2.00000000e-03
2.00000000e-03
2.00000000e-03
2.00000000e-03
2.00000000e-03
2.00000000e-03
2.00000000e-03
2.00000000e-03
2.00000000e-03
2.00000000e-03
2.00000000e-03
2.00000000e-03
2.00000000e-03
2.00000000e-03
2.00000000e-03
2.00000000e-03
2.00000000e-03
2.00000000e-03
2.00000000e-03
2.00000000e-03
2.00000000e-03
2.00000000e-03
2.00000000e-03
2.00000000e-03
2.00000000e-03
2.00000000e-03
2.00000000e-03
2.00000000e-03
2.00000000e-03
2.00000000e-03
2.00000000e-03
2.00000000e-03
2.00000000e-03
2.00000000e-03
2.00000000e-03
2.00000000e-03
2.00000000e-03
2.00000000e-03
2.00000000e-03
2.00000000e-03
2.00000000e-03
2.00000000e-03
2.00000000e-03
2.00000000e-03
2.00000000e-03
2.00000000e-03
2.00000000e-03
2.00000000e-03
2.00000000e-03
2.00000000e-03
2.00000000e-03
2.00000000e-03
2.00000000e-03
2.00000000e-03
2.00000000e-03
2.00000000e-03
2.00000000e-03
2.00000000e-03
2.00000000e-03
2.00000000e-03
2.00000000e-03
2.00000000e-03
2.00000000e-03
2.00000000e-03
2.00000000e-03
2.00000000e-03
2.00000000e-03
2.00000000e-03
2.00000000e-03
2.00000000e-03
2.00000000e-03
2.00000000e-03
2.00000000e-03
2.00000000e-03
2.00000000e-03
2.00000000e-03
2.00000000e-03
2.00000000e-03
2.00000000e-03
2.00000000e-03
2.00000000e-03
2.00000000e-03
2.00000000e-03
2.00000000e-03
2.00000000e-03
2.00000000e-03
2.00000000e-03
2.00000000e-03
2.00000000e-03
2.00000000e-03
2.00000000e-03
2.00000000e-03
2.00000000e-03
2.00000000e-03
2.00000000e-03
2.00000000e-03
2.00000000e-03
2.00000000e-03
2.00000000e-03
2.00000000e-03
2.00000000e-03
2.00000000e-03
2.00000000e-03
2.00000000e-03
2.00000000e-03
2.00000000e-03
2.00000000e-03
2.00000000e-03
2.00000000e-03
2.00000000e-03
2.00000000e-03
2.00000000e-03
2.00000000e-03
2.00000000e-03
2.00000000e-03
2.00000000e-03
2.00000000e-03
2.00000000e-03
2.00000000e-03
2.00000000e-03
2.00000000e-03
2.00000000e-03
2.00000000e-03
2.00000000e-03
2.00000000e-03
2.00000000e-03
2.00000000e-03
2.00000000e-03
2.00000000e-03
2.00000000e-03
2.00000000e-03
2.00000000e-03
2.00000000e-03
2.00000000e-03
2.00000000e-03
2.00000000e-03
2.00000000e-03
2.00000000e-03
2.00000000e-03
2.00000000e-03
2.00000000e-03
2.00000000e-03
2.00000000e-03
2.00000000e-03
2.00000000e-03
2.00000000e-03
2.00000000e-03
2.00000000e-03
2.00000000e-03
2.00000000e-03
2.00000000e-03
2.00000000e-03
2.00000000e-03
2.00000000e-03
2.00000000e-03
2.00000000e-03
2.00000000e-03
2.00000000e-03
2.00000000e-03
2.00000000e-03
2.00000000e-03
2.00000000e-03
2.00000000e-03
2.00000000e-03
2.00000000e-03
2.00000000e-03
2.00000000e-03
2.00000000e-03
2.00000000e-03
2.00000000e-03
2.00000000e-03
2.00000000e-03
2.00000000e-03
2.00000000e-03
2.00000000e-03
2.00000000e-03
2.00000000e-03
2.00000000e-03
2.00000000e-03
2.00000000e-03
2.00000000e-03
2.00000000e-03
2.00000000e-03
2.00000000e-03
2.00000000e-03
2.00000000e-03
2.00000000e-03
2.00000000e-03
2.00000000e-03
2.00000000e-03
2.00000000e-03
2.00000000e-03
2.00000000e-03
2.00000000e-03
2.00000000e-03
2.00000000e-03
2.00000000e-03
2.00000000e-03
2.00000000e-03
2.00000000e-03
2.00000000e-03
2.00000000e-03
2.00000000e-03
2.00000000e-03
2.00000000e-03
2.00000000e-03
2.00000000e-03
2.00000000e-03
2.00000000e-03
2.00000000e-03
2.00000000e-03
2.00000000e-03
2.00000000e-03
2.00000000e-03
2.00000000e-03
2.00000000e-03
2.00000000e-03
2.00000000e-03
2.00000000e-03
2.00000000e-03
2.00000000e-03
2.00000000e-03
2.00000000e-03
2.00000000e-03
2.00000000e-03
2.00000000e-03
2.00000000e-03
2.00000000e-03
2.00000000e-03
2.00000000e-03
2.00000000e-03
2.00000000e-03
2.00000000e-03
2.00000000e-03
2.00000000e-03
2.00000000e-03
2.00000000e-03
2.00000000e-03
2.00000000e-03
2.00000000e-03
2.00000000e-03
2.00000000e-03
2.00000000e-03
2.00000000e-03
2.00000000e-03
2.00000000e-03
2.00000000e-03
2.00000000e-03
2.00000000e-03
2.00000000e-03
2.00000000e-03
2.00000000e-03
2.00000000e-03
2.00000000e-03
2.00000000e-03
2.00000000e-03
2.00000000e-03
2.00000000e-03
2.00000000e-03
2.00000000e-03
2.00000000e-03
2.00000000e-03
2.00000000e-03
2.00000000e-03
2.00000000e-03
2.00000000e-03
2.00000000e-03
2.00000000e-03
2.00000000e-03
2.00000000e-03
2.00000000e-03
2.00000000e-03
2.00000000e-03
2.00000000e-03
2.00000000e-03
2.00000000e-03
2.00000000e-03
2.00000000e-03
2.00000000e-03
2.00000000e-03
2.00000000e-03
2.00000000e-03
2.00000000e-03
2.00000000e-03
2.00000000e-03
2.00000000e-03
2.00000000e-03
2.00000000e-03
2.00000000e-03
2.00000000e-03
2.00000000e-03
2.00000000e-03
2.00000000e-03
2.00000000e-03
2.00000000e-03
2.00000000e-03
2.00000000e-03
2.00000000e-03
2.00000000e-03
2.00000000e-03
2.00000000e-03
2.00000000e-03
2.00000000e-03
2.00000000e-03
2.00000000e-03
2.00000000e-03
2.00000000e-03
2.00000000e-03
2.00000000e-03
2.00000000e-03
2.00000000e-03
2.00000000e-03
2.00000000e-03
2.00000000e-03
2.00000000e-03
2.00000000e-03
2.00000000e-03
2.00000000e-03
2.00000000e-03
2.00000000e-03
2.00000000e-03
2.00000000e-03
2.00000000e-03
2.00000000e-03
2.00000000e-03
2.00000000e-03
2.00000000e-03
2.00000000e-03
2.00000000e-03
2.00000000e-03
2.00000000e-03
2.00000000e-03
2.00000000e-03
2.00000000e-03
2.00000000e-03
2.00000000e-03
2.00000000e-03
2.00000000e-03
2.00000000e-03
2.00000000e-03
2.00000000e-03
2.00000000e-03
2.00000000e-03
2.00000000e-03
2.00000000e-03
2.00000000e-03
2.00000000e-03
2.00000000e-03
2.00000000e-03
2.00000000e-03
2.00000000e-03
2.00000000e-03
2.00000000e-03
2.00000000e-03
2.00000000e-03
2.00000000e-03
2.00000000e-03
2.00000000e-03
2.00000000e-03
2.00000000e-03
2.00000000e-03
2.00000000e-03
2.00000000e-03
2.00000000e-03
2.00000000e-03
2.00000000e-03
2.00000000e-03
2.00000000e-03
2.00000000e-03
2.00000000e-03
2.00000000e-03
2.00000000e-03
2.00000000e-03
2.00000000e-03
2.00000000e-03
2.00000000e-03
2.00000000e-03
2.00000000e-03
2.00000000e-03
2.00000000e-03
2.00000000e-03
2.00000000e-03
2.00000000e-03
2.00000000e-03
2.00000000e-03
2.00000000e-03
2.00000000e-03
2.00000000e-03
2.00000000e-03
2.00000000e-03
2.00000000e-03
2.00000000e-03
2.00000000e-03
2.00000000e-03
2.00000000e-03
2.00000000e-03
2.00000000e-03
2.00000000e-03
2.00000000e-03
2.00000000e-03
2.00000000e-03
2.00000000e-03
2.00000000e-03
2.00000000e-03
2.00000000e-03
2.00000000e-03
2.00000000e-03
2.00000000e-03
2.00000000e-03
