# vtk DataFile Version 2.0
Particle data
ASCII
DATASET POLYDATA
POINTS 469 double
-5.40492371e-03	-3.54739101e-02	1.49949030e-02
8.05564190e-03	-1.85171642e-02	1.27382333e-02
1.92190434e-02	-9.45382833e-04	6.47433930e-03
2.66837358e-02	-1.95287291e-02	1.04144490e-02
7.77049531e-03	-2.37618125e-02	2.31137079e-03
-8.30672202e-03	-2.82543221e-02	3.42635454e-03
-9.29252768e-03	-2.81456626e-02	1.77138053e-02
2.57198200e-02	-1.48390024e-02	1.79224911e-02
2.66327171e-02	1.46932375e-02	1.81873635e-02
3.57451819e-02	-1.37875631e-02	1.81820910e-02
1.75338589e-04	-3.61532955e-02	7.59954934e-03
2.99336316e-03	-2.02002073e-02	1.77098912e-02
3.72838015e-02	1.23105622e-02	1.16019849e-02
1.34914506e-02	-1.17137169e-02	5.98899724e-03
1.29232847e-03	-3.42318693e-02	1.41168206e-02
3.51349313e-02	-1.86879686e-02	1.06835705e-02
2.46804962e-02	-1.27527665e-02	6.33822301e-03
1.89474179e-02	8.20217297e-03	1.95716486e-03
2.43945375e-02	-1.47954912e-02	1.43135042e-02
-7.58937437e-03	-3.81616606e-02	5.61052619e-03
3.09262690e-03	-3.77805122e-02	2.29126016e-03
3.03013493e-02	1.13590716e-02	1.72769506e-02
3.01231684e-02	-2.58549147e-02	2.12682398e-03
1.30423721e-02	-9.54568581e-03	2.69091224e-03
1.80477203e-02	-3.80767476e-03	2.16670595e-03
3.44905920e-02	-1.21029221e-02	8.90399930e-03
1.12667065e-02	-3.77581557e-02	1.53623877e-02
2.08626970e-02	5.66113901e-03	1.29532671e-02
2.32790022e-02	-2.80341451e-02	1.10354620e-02
2.49085888e-02	-1.05931951e-02	1.51216984e-02
1.11728593e-02	-7.72804274e-03	9.21531843e-03
2.22567833e-02	1.40482297e-02	2.37266640e-03
7.96308998e-03	-7.49388806e-03	5.88955995e-03
2.62089814e-02	7.01937154e-03	1.80497206e-02
3.92005107e-02	-3.72513738e-03	1.08029583e-02
2.09553262e-02	1.74301336e-03	1.10092313e-02
-7.26367118e-03	-3.65444823e-02	1.00407073e-02
1.91694518e-02	-3.54504907e-02	9.78927635e-03
6.52138488e-05	-2.42417842e-02	1.23756049e-02
2.79003679e-03	-2.62381069e-02	4.04618009e-03
2.00802188e-02	-3.11974165e-02	1.14576901e-02
1.56279497e-02	1.21184009e-03	1.42727797e-02
3.89435411e-02	-4.08142586e-03	2.23336126e-03
-2.15715938e-03	-3.40388305e-02	1.78423835e-02
3.00448642e-02	-1.40404295e-03	1.57055093e-02
3.28391361e-03	-3.68886568e-02	1.15402067e-02
1.23666857e-02	-2.02757696e-02	1.13162471e-02
9.02995894e-03	-3.81950246e-02	1.34504363e-02
2.00515457e-02	-1.99693724e-02	1.03289659e-02
5.36156757e-05	-3.74178269e-02	1.79957943e-02
2.59312434e-02	-1.32954387e-02	2.19367867e-03
1.64019746e-02	-1.83299995e-02	9.79028875e-03
1.56509575e-02	-3.62475201e-02	1.23476754e-02
2.27103052e-02	-1.53479737e-02	2.64726687e-03
3.15188094e-02	-1.63576705e-02	1.12181519e-02
2.63289244e-02	-2.21505670e-02	1.50656013e-02
3.62449593e-02	-1.60942105e-02	8.78488659e-03
7.92033224e-03	-3.28732670e-02	1.80637161e-02
3.64683010e-02	1.85117120e-03	1.45639565e-02
3.19414774e-02	-4.11141348e-03	1.50447794e-02
3.62009594e-02	3.70253705e-03	1.79393500e-02
2.85087840e-02	4.28321760e-03	1.01635099e-02
1.63112835e-02	-1.82584896e-02	1.78985395e-02
2.87499981e-02	-2.38272451e-02	9.31251403e-03
2.61595903e-02	1.09300422e-02	5.29813535e-03
4.21697411e-03	-3.58248969e-02	6.45909395e-03
3.84722735e-02	-9.15786729e-03	3.23274821e-03
9.58773273e-03	-1.12117184e-02	1.74629381e-02
3.53060155e-02	-9.16779180e-03	6.31359634e-03
3.88603060e-02	8.49723690e-03	9.31099408e-03
1.96152035e-02	-2.96673203e-02	7.16657692e-03
3.25517017e-02	1.29162355e-02	2.59273868e-03
-4.25462372e-03	-3.77344718e-02	1.81368253e-02
-3.63808994e-03	-3.69005428e-02	1.37231949e-02
9.52512482e-03	-4.49198781e-03	1.14097668e-02
1.91235374e-02	-2.96050836e-02	1.75926900e-02
2.25307857e-02	-1.50544365e-02	6.25749027e-03
-8.83913245e-03	-3.25527531e-02	7.11608703e-03
3.80753598e-02	5.73454958e-03	1.84337589e-02
3.44319689e-02	-2.02903831e-02	1.82310300e-02
1.01471772e-02	-3.31490006e-02	9.09790985e-03
2.84939232e-02	3.02590796e-03	6.81418450e-03
2.51877165e-02	-4.45525950e-04	1.65678322e-03
2.89235532e-02	1.26568275e-03	1.80324420e-02
3.32163623e-02	-5.89161171e-04	2.11355029e-03
4.41806684e-04	-4.23658288e-02	2.72076805e-03
8.60312064e-03	-1.74592852e-02	1.68001159e-02
3.19693779e-02	-2.34611678e-02	1.09775733e-02
3.50203793e-02	5.21759351e-03	6.28824627e-03
3.24509254e-02	-8.84954147e-03	4.05682790e-03
6.52886935e-03	-3.96772782e-02	1.03298356e-02
3.16410510e-03	-3.12996077e-02	4.70194142e-03
3.15985897e-02	1.48397525e-02	6.15391814e-03
9.75997023e-03	-3.91537360e-02	2.62658743e-03
8.05287065e-03	-1.49573039e-02	9.48909018e-03
2.95811848e-02	1.84576312e-02	7.68169146e-03
3.07035055e-02	-2.60229895e-02	6.04839716e-03
3.52869214e-02	-9.47127431e-03	1.24767576e-02
2.31795037e-02	-1.31335938e-03	1.85723710e-02
2.31598063e-03	-2.24315699e-02	9.03754165e-03
3.08607374e-02	-1.01811841e-02	7.25169708e-03
3.17558168e-02	-9.11709956e-03	1.10752485e-02
2.23287951e-02	-2.95791508e-02	1.55812205e-02
3.65741088e-02	9.96635983e-03	1.71888791e-02
3.23956754e-02	-6.82204384e-03	8.03973549e-03
1.57645013e-03	-4.23766723e-02	1.02681324e-02
2.28688081e-02	-8.37774769e-03	7.37433226e-03
2.63920596e-02	-1.04301124e-02	4.11902167e-03
3.43538822e-02	-9.34884621e-03	1.78039038e-03
4.90525996e-03	-2.54476229e-02	8.50347838e-03
3.40470940e-02	-1.59691369e-02	2.11151703e-03
5.26227029e-03	-3.68013759e-02	1.80727396e-02
1.30253444e-02	-3.05669483e-02	1.72270793e-02
2.76383636e-02	-1.82246359e-02	1.76458046e-03
3.24535699e-02	3.80095785e-03	1.40095714e-02
3.25170986e-02	-3.74569386e-03	1.95545683e-03
5.80212301e-03	-3.98407483e-02	1.46251011e-02
3.64551213e-02	-1.64862336e-02	4.87781526e-03
6.39032226e-03	-2.13998942e-02	6.61972747e-03
1.17521259e-02	-8.78951835e-04	7.45676253e-03
8.68917058e-03	-3.09213793e-02	1.91484020e-03
2.44273119e-02	-8.27569360e-03	1.44894881e-02
-1.24572674e-02	-3.65877583e-02	1.61192079e-02
3.92241627e-02	3.15502598e-03	5.65594414e-03
3.55995300e-02	1.58489532e-02	1.82169773e-02
1.24671745e-03	-4.18880250e-02	1.44992486e-02
-5.27717724e-03	-2.27031182e-02	6.15164186e-03
-5.76528427e-03	-2.68256307e-02	1.29331257e-02
2.65178490e-02	-2.36734784e-02	1.08014263e-02
1.41838677e-02	-2.93637866e-02	1.83714179e-03
2.47057090e-02	-2.16021527e-02	2.35572106e-03
3.68352606e-02	1.45748050e-02	4.40615825e-03
4.10115291e-03	-3.14232375e-02	1.79430703e-02
1.10606034e-02	-2.71716156e-03	1.18606447e-02
1.74632770e-02	-1.36747911e-02	2.40523398e-03
3.93540295e-02	1.33394313e-03	1.31376806e-02
1.27165435e-02	-5.67708887e-03	5.86778233e-03
-1.37540581e-02	-3.34321360e-02	1.24987593e-03
2.47356851e-02	-9.31667708e-03	1.10771017e-02
2.27349689e-02	-1.86090260e-02	1.57611845e-02
3.23228521e-02	2.05998337e-04	1.65411758e-02
-8.24188772e-04	-4.03294670e-02	1.08095222e-02
1.35572035e-02	-2.43341024e-02	1.38195875e-02
1.53538487e-02	-3.64872276e-02	2.30626939e-03
-6.79345238e-03	-3.25826931e-02	5.53325481e-03
-3.34584514e-03	-3.96315617e-02	1.98210770e-03
3.24522754e-02	-2.31170696e-02	2.02295218e-03
-6.98585450e-05	-2.69294391e-02	2.00683857e-03
1.82783622e-02	-1.32873305e-02	1.05540259e-02
3.15054119e-02	-1.07727429e-02	1.52563417e-02
9.49550876e-03	-2.96042856e-02	1.72322149e-02
2.75695710e-02	-2.09800845e-03	8.95683649e-03
-4.71462713e-03	-2.65895778e-02	9.71620214e-03
7.74981110e-03	-3.38292175e-02	1.14954363e-02
2.44788189e-02	-1.82913992e-02	8.71565505e-03
2.93422472e-02	-1.95537060e-02	1.38268880e-02
1.18940614e-04	-1.77155955e-02	4.67856721e-03
1.38995287e-02	-1.68893372e-02	6.07724456e-03
3.75833104e-02	7.95348182e-03	1.48322063e-02
5.18603567e-04	-2.35427808e-02	4.19551303e-03
2.54907339e-02	1.31710099e-02	8.30564346e-03
-6.28729913e-03	-2.64494454e-02	1.52908469e-03
3.76120050e-02	3.52813246e-03	8.85518521e-03
2.32903589e-02	-2.76467021e-02	1.81885748e-02
2.24533294e-02	-4.46068148e-03	2.26476421e-03
5.61440905e-03	-2.09634164e-02	1.40724330e-02
2.27565657e-02	-1.96335552e-02	5.54487087e-03
-1.55370833e-02	-3.65190055e-02	7.44666566e-03
2.87781732e-02	-2.40002271e-02	1.79761726e-02
3.29626169e-02	-2.31888454e-02	5.89387031e-03
-1.42388235e-02	-2.56823466e-02	1.69448856e-02
3.49553106e-02	-7.12327005e-03	9.91326303e-03
1.40620293e-02	-3.41752177e-02	1.78123735e-02
-5.86400375e-04	-2.72025224e-02	1.70203123e-02
-8.01927712e-03	-3.49796717e-02	1.69898409e-02
-2.82786567e-04	-1.75571484e-02	1.52946456e-02
3.16290674e-02	2.25795258e-02	2.40331364e-03
3.29989819e-02	9.89092858e-03	1.76294228e-02
6.44886585e-03	-8.49707857e-03	1.67763011e-02
2.38945464e-02	-1.98878842e-03	7.32662493e-03
2.36215136e-02	-2.79072642e-02	5.10253879e-03
3.08164787e-02	4.66425057e-04	5.25985841e-03
4.27769842e-03	-3.73184501e-02	1.79359038e-02
2.48668532e-02	-3.09330070e-02	1.39297386e-02
2.72204664e-02	7.34435557e-03	1.27962356e-02
-2.65759131e-03	-1.71765607e-02	1.14030753e-02
1.04595298e-02	-2.87844220e-02	2.22793841e-03
2.36390854e-02	9.34458131e-03	1.21888267e-02
-4.65668436e-03	-3.44407629e-02	1.77113966e-02
1.10880171e-02	-2.60622392e-03	2.03289150e-03
3.24756364e-02	-1.67862994e-02	1.55755969e-02
2.63828008e-02	3.96321026e-03	1.52562608e-02
3.05800358e-02	-2.59205199e-02	1.50742374e-02
1.40019325e-02	-3.63281740e-02	1.75674114e-02
1.01053856e-02	-1.67638970e-02	4.46864847e-03
2.35775339e-02	-2.04010285e-02	1.30909990e-02
3.16472659e-02	9.20304558e-03	1.15280382e-02
2.75766116e-02	-1.09252193e-02	9.78836799e-03
1.71235383e-02	-2.35873308e-02	6.50869384e-03
3.57369520e-02	-8.46242448e-03	1.83271239e-02
7.57808421e-03	-3.58403402e-02	1.46142494e-02
1.12201477e-02	-3.09733941e-02	1.44063750e-02
3.15288212e-02	-2.38995220e-02	1.80001356e-02
3.52441856e-02	1.53071301e-02	1.08669537e-02
3.41878957e-02	-1.30834204e-02	1.47826113e-02
1.33253788e-02	-3.13369214e-02	7.86197873e-03
1.82627981e-02	-2.90580319e-02	1.33251941e-02
1.89634384e-02	-3.36327156e-02	6.15947020e-03
1.24742677e-02	-6.90547779e-03	1.35806932e-02
2.10123427e-02	-2.44969869e-02	1.18305785e-02
3.88809211e-02	-2.37928719e-03	1.45091957e-02
2.95310558e-02	-6.40706877e-03	1.99962172e-03
3.59933673e-02	-4.02426889e-03	1.31008791e-02
3.32866933e-02	-5.31975774e-04	1.31970379e-02
1.17694608e-02	-1.09119022e-02	1.44134372e-02
[...]
POINT_DATA 469
SCALARS Radius double 1
LOOKUP_TABLE default
2.00000000e-03
2.00000000e-03
2.00000000e-03
2.00000000e-03
2.00000000e-03
2.00000000e-03
2.00000000e-03
2.00000000e-03
2.00000000e-03
2.00000000e-03
2.00000000e-03
2.00000000e-03
2.00000000e-03
2.00000000e-03
2.00000000e-03
2.00000000e-03
2.00000000e-03
2.00000000e-03
2.00000000e-03
2.00000000e-03
2.00000000e-03
2.00000000e-03
2.00000000e-03
2.00000000e-03
2.00000000e-03
2.00000000e-03
2.00000000e-03
2.00000000e-03
2.00000000e-03
2.00000000e-03
2.00000000e-03
2.00000000e-03
2.00000000e-03
2.00000000e-03
2.00000000e-03
2.00000000e-03
2.00000000e-03
2.00000000e-03
2.00000000e-03
2.00000000e-03
2.00000000e-03
2.00000000e-03
2.00000000e-03
2.00000000e-03
2.00000000e-03
2.00000000e-03
2.00000000e-03
2.00000000e-03
2.00000000e-03
2.00000000e-03
2.00000000e-03
2.00000000e-03
2.00000000e-03
2.00000000e-03
2.00000000e-03
2.00000000e-03
2.00000000e-03
2.00000000e-03
2.00000000e-03
2.00000000e-03
2.00000000e-03
2.00000000e-03
2.00000000e-03
2.00000000e-03
2.00000000e-03
2.00000000e-03
2.00000000e-03
2.00000000e-03
2.00000000e-03
2.00000000e-03
2.00000000e-03
2.00000000e-03
2.00000000e-03
2.00000000e-03
2.00000000e-03
2.00000000e-03
2.00000000e-03
2.00000000e-03
2.00000000e-03
2.00000000e-03
2.00000000e-03
2.00000000e-03
2.00000000e-03
2.00000000e-03
2.00000000e-03
2.00000000e-03
2.00000000e-03
2.00000000e-03
2.00000000e-03
2.00000000e-03
2.00000000e-03
2.00000000e-03
2.00000000e-03
2.00000000e-03
2.00000000e-03
2.00000000e-03
2.00000000e-03
2.00000000e-03
2.00000000e-03
2.00000000e-03
2.00000000e-03
2.00000000e-03
2.00000000e-03
2.00000000e-03
2.00000000e-03
2.00000000e-03
2.00000000e-03
2.00000000e-03
2.00000000e-03
2.00000000e-03
2.00000000e-03
2.00000000e-03
2.00000000e-03
2.00000000e-03
2.00000000e-03
2.00000000e-03
2.00000000e-03
2.00000000e-03
2.00000000e-03
2.00000000e-03
2.00000000e-03
2.00000000e-03
2.00000000e-03
2.00000000e-03
2.00000000e-03
2.00000000e-03
2.00000000e-03
2.00000000e-03
2.00000000e-03
2.00000000e-03
2.00000000e-03
2.00000000e-03
2.00000000e-03
2.00000000e-03
2.00000000e-03
2.00000000e-03
2.00000000e-03
2.00000000e-03
2.00000000e-03
2.00000000e-03
2.00000000e-03
2.00000000e-03
2.00000000e-03
2.00000000e-03
2.00000000e-03
2.00000000e-03
2.00000000e-03
2.00000000e-03
2.00000000e-03
2.00000000e-03
2.00000000e-03
2.00000000e-03
2.00000000e-03
2.00000000e-03
2.00000000e-03
2.00000000e-03
2.00000000e-03
2.00000000e-03
2.00000000e-03
2.00000000e-03
2.00000000e-03
2.00000000e-03
2.00000000e-03
2.00000000e-03
2.00000000e-03
2.00000000e-03
2.00000000e-03
2.00000000e-03
2.00000000e-03
2.00000000e-03
2.00000000e-03
2.00000000e-03
2.00000000e-03
2.00000000e-03
2.00000000e-03
2.00000000e-03
2.00000000e-03
2.00000000e-03
2.00000000e-03
2.00000000e-03
2.00000000e-03
2.00000000e-03
2.00000000e-03
2.00000000e-03
2.00000000e-03
2.00000000e-03
2.00000000e-03
2.00000000e-03
2.00000000e-03
2.00000000e-03
2.00000000e-03
2.00000000e-03
2.00000000e-03
2.00000000e-03
2.00000000e-03
2.00000000e-03
2.00000000e-03
2.00000000e-03
2.00000000e-03
2.00000000e-03
2.00000000e-03
2.00000000e-03
2.00000000e-03
2.00000000e-03
2.00000000e-03
2.00000000e-03
2.00000000e-03
2.00000000e-03
2.00000000e-03
2.00000000e-03
2.00000000e-03
2.00000000e-03
2.00000000e-03
2.00000000e-03
2.00000000e-03
2.00000000e-03
2.00000000e-03
2.00000000e-03
2.00000000e-03
2.00000000e-03
2.00000000e-03
2.00000000e-03
2.00000000e-03
2.00000000e-03
2.00000000e-03
2.00000000e-03
2.00000000e-03
2.00000000e-03
2.00000000e-03
2.00000000e-03
2.00000000e-03
2.00000000e-03
2.00000000e-03
2.00000000e-03
2.00000000e-03
2.00000000e-03
2.00000000e-03
2.00000000e-03
2.00000000e-03
2.00000000e-03
2.00000000e-03
2.00000000e-03
2.00000000e-03
2.00000000e-03
2.00000000e-03
2.00000000e-03
2.00000000e-03
2.00000000e-03
2.00000000e-03
2.00000000e-03
2.00000000e-03
2.00000000e-03
2.00000000e-03
2.00000000e-03
2.00000000e-03
2.00000000e-03
2.00000000e-03
2.00000000e-03
2.00000000e-03
2.00000000e-03
2.00000000e-03
2.00000000e-03
2.00000000e-03
2.00000000e-03
2.00000000e-03
2.00000000e-03
2.00000000e-03
2.00000000e-03
2.00000000e-03
2.00000000e-03
2.00000000e-03
2.00000000e-03
2.00000000e-03
2.00000000e-03
2.00000000e-03
2.00000000e-03
2.00000000e-03
2.00000000e-03
2.00000000e-03
2.00000000e-03
2.00000000e-03
2.00000000e-03
2.00000000e-03
2.00000000e-03
2.00000000e-03
2.00000000e-03
2.00000000e-03
2.00000000e-03
2.00000000e-03
2.00000000e-03
2.00000000e-03
2.00000000e-03
2.00000000e-03
2.00000000e-03
2.00000000e-03
2.00000000e-03
2.00000000e-03
2.00000000e-03
2.00000000e-03
2.00000000e-03
2.00000000e-03
2.00000000e-03
2.00000000e-03
2.00000000e-03
2.00000000e-03
2.00000000e-03
2.00000000e-03
2.00000000e-03
2.00000000e-03
2.00000000e-03
2.00000000e-03
2.00000000e-03
2.00000000e-03
2.00000000e-03
2.00000000e-03
2.00000000e-03
2.00000000e-03
2.00000000e-03
2.00000000e-03
2.00000000e-03
2.00000000e-03
2.00000000e-03
2.00000000e-03
2.00000000e-03
2.00000000e-03
2.00000000e-03
2.00000000e-03
2.00000000e-03
2.00000000e-03
2.00000000e-03
2.00000000e-03
2.00000000e-03
2.00000000e-03
2.00000000e-03
2.00000000e-03
2.00000000e-03
2.00000000e-03
2.00000000e-03
2.00000000e-03
2.00000000e-03
2.00000000e-03
2.00000000e-03
2.00000000e-03
2.00000000e-03
2.00000000e-03
2.00000000e-03
2.00000000e-03
2.00000000e-03
2.00000000e-03
2.00000000e-03
2.00000000e-03
2.00000000e-03
2.00000000e-03
2.00000000e-03
2.00000000e-03
2.00000000e-03
2.00000000e-03
2.00000000e-03
2.00000000e-03
2.00000000e-03
2.00000000e-03
2.00000000e-03
2.00000000e-03
2.00000000e-03
2.00000000e-03
2.00000000e-03
2.00000000e-03
2.00000000e-03
2.00000000e-03
2.00000000e-03
2.00000000e-03
2.00000000e-03
2.00000000e-03
2.00000000e-03
2.00000000e-03
2.00000000e-03
2.00000000e-03
2.00000000e-03
2.00000000e-03
2.00000000e-03
2.00000000e-03
2.00000000e-03
2.00000000e-03
2.00000000e-03
2.00000000e-03
2.00000000e-03
2.00000000e-03
2.00000000e-03
2.00000000e-03
2.00000000e-03
2.00000000e-03
2.00000000e-03
2.00000000e-03
2.00000000e-03
2.00000000e-03
2.00000000e-03
2.00000000e-03
2.00000000e-03
2.00000000e-03
2.00000000e-03
2.00000000e-03
2.00000000e-03
2.00000000e-03
2.00000000e-03
2.00000000e-03
2.00000000e-03
2.00000000e-03
2.00000000e-03
2.00000000e-03
2.00000000e-03
2.00000000e-03
2.00000000e-03
2.00000000e-03
2.00000000e-03
2.00000000e-03
2.00000000e-03
2.00000000e-03
2.00000000e-03
2.00000000e-03
2.00000000e-03
2.00000000e-03
2.00000000e-03
2.00000000e-03
2.00000000e-03
2.00000000e-03
2.00000000e-03
2.00000000e-03
2.00000000e-03
2.00000000e-03
2.00000000e-03
2.00000000e-03
2.00000000e-03
2.00000000e-03
2.00000000e-03
2.00000000e-03
2.00000000e-03
2.00000000e-03
2.00000000e-03
2.00000000e-03
2.00000000e-03
2.00000000e-03
2.00000000e-03
2.00000000e-03
2.00000000e-03
2.00000000e-03
2.00000000e-03
2.00000000e-03
2.00000000e-03
2.00000000e-03
2.00000000e-03
2.00000000e-03
2.00000000e-03
2.00000000e-03
2.00000000e-03
2.00000000e-03
2.00000000e-03
2.00000000e-03
2.00000000e-03
2.00000000e-03
2.00000000e-03
2.00000000e-03
2.00000000e-03
2.00000000e-03
2.00000000e-03
2.00000000e-03
2.00000000e-03
2.00000000e-03
2.00000000e-03
2.00000000e-03
