# vtk DataFile Version 2.0
Particle data
ASCII
DATASET POLYDATA
POINTS 469 double
1.69365624e-02	8.51722585e-03	8.25771502e-03
2.61517805e-02	1.07225707e-02	1.44851818e-02
2.88017760e-02	2.40485420e-03	6.02857791e-03
1.53484052e-02	-3.18352621e-02	1.07797251e-02
2.05755239e-02	-5.21887747e-04	2.03401973e-03
1.90697866e-02	1.38099935e-02	3.90625361e-03
2.33535561e-02	1.18305757e-02	1.35829548e-02
1.79496816e-02	-2.45353704e-02	1.78076849e-02
3.50405153e-02	6.78391134e-03	1.79810959e-02
2.80516121e-02	-2.59253065e-02	1.77015777e-02
4.59523109e-03	-2.09732543e-02	6.19183101e-03
2.50175826e-02	1.19094337e-02	1.78817613e-02
3.87504587e-02	-4.97212616e-03	1.14907806e-02
2.47751819e-02	2.57883600e-03	3.57021925e-03
8.41981839e-03	-1.24845334e-02	1.33358954e-02
2.41208060e-02	-3.25510806e-02	1.02933582e-02
1.92020200e-02	-2.07705991e-02	6.12499288e-03
3.29317223e-02	1.38240852e-02	2.25578393e-03
1.79426567e-02	-2.38589964e-02	1.41931732e-02
-3.34369250e-03	-2.74119151e-02	8.54222218e-03
-2.00660131e-03	-3.00499814e-02	2.15624982e-03
3.59085480e-02	2.98882565e-03	1.75168705e-02
1.62914494e-02	-3.74957285e-02	2.23584638e-03
2.04479563e-02	-7.52906767e-03	2.19127792e-03
2.46997371e-02	-3.48785465e-04	2.13162325e-03
2.72579184e-02	-2.30635305e-02	8.19240347e-03
-4.00566604e-03	-3.90879743e-02	1.53357833e-02
3.54517162e-02	1.01086871e-02	1.29107147e-02
8.31092316e-03	-3.83063796e-02	1.04220794e-02
1.96438221e-02	-1.89401042e-02	1.48345045e-02
3.21792381e-02	9.29934498e-03	1.09647348e-02
3.51952516e-02	1.84577970e-02	2.17641377e-03
3.09821904e-02	1.69592472e-02	4.75606363e-03
2.86259239e-02	-3.10391437e-03	1.81102393e-02
3.62318415e-02	-1.75358970e-02	1.14577786e-02
3.19336269e-02	3.08801955e-03	1.09825281e-02
1.39115119e-02	9.63247302e-03	7.17237344e-03
3.73197750e-03	-4.02300265e-02	9.80552129e-03
2.42151260e-02	1.06979490e-02	1.13282464e-02
1.68160373e-02	-5.04956244e-03	2.57359401e-03
6.07958088e-03	-3.76184549e-02	1.10770124e-02
3.52965370e-02	1.72620225e-02	1.49708169e-02
3.62927930e-02	-1.63194004e-02	2.20563825e-03
9.17328975e-03	-1.64118096e-02	1.79048481e-02
2.65149134e-02	-1.35036484e-02	1.63811302e-02
-4.53867084e-03	-3.17748959e-02	1.01096976e-02
1.49615882e-02	-1.64358523e-02	1.17101109e-02
-2.49354842e-03	-3.71813376e-02	1.37279854e-02
1.27261935e-02	-2.56218738e-02	1.04548741e-02
-3.05250518e-03	-2.33682988e-02	1.73863858e-02
1.74221816e-02	-2.34623534e-02	2.22832430e-03
1.34122306e-02	-2.17703099e-02	9.78039940e-03
-2.57189929e-04	-4.08478992e-02	1.20297877e-02
1.72895200e-02	-1.93499070e-02	2.65655105e-03
2.48374278e-02	-2.60852474e-02	1.10497387e-02
1.24547108e-02	-3.42787198e-02	1.55139944e-02
2.71837873e-02	-2.86682605e-02	8.80298912e-03
-1.63770051e-03	-2.93039907e-02	1.63941800e-02
3.38838069e-02	-1.19383976e-02	1.48362849e-02
2.91427866e-02	-1.44191426e-02	1.48667036e-02
3.61707133e-02	-9.14988927e-03	1.81120384e-02
2.87920982e-02	-7.38983706e-03	1.07597580e-02
1.45616241e-02	-1.65605059e-02	1.83475844e-02
1.52480749e-02	-3.55404225e-02	9.20157756e-03
3.16113659e-02	4.79416874e-04	4.37311949e-03
8.11421374e-04	-2.77611725e-02	8.88452575e-03
3.45634072e-02	-1.95844854e-02	3.52560367e-03
2.89924069e-02	1.40963102e-02	1.84119003e-02
3.10001966e-02	-2.05586495e-02	6.30136370e-03
3.95044118e-02	-6.04563592e-03	9.72399426e-03
6.97729282e-03	-3.28539601e-02	5.92423300e-03
3.69497563e-02	3.29284809e-03	2.52163652e-03
-3.53312228e-03	-1.98425104e-02	1.69844054e-02
-1.58820734e-02	-3.38799271e-02	1.14078590e-02
3.26462340e-02	2.25033260e-02	5.69916562e-03
5.18604402e-03	-3.46770401e-02	1.75559357e-02
1.62104325e-02	-2.26959633e-02	7.02331990e-03
1.74590769e-02	6.47164126e-03	1.29094012e-02
3.78371623e-02	-7.34045445e-03	1.77043895e-02
2.24794850e-02	-3.44647865e-02	1.82157190e-02
8.00819637e-04	-3.05608008e-02	9.98144733e-03
2.94024155e-02	-5.54415503e-03	7.42228721e-03
2.95368285e-02	-6.23910748e-03	2.09338548e-03
2.66873525e-02	-9.42397206e-03	1.80723519e-02
3.25839528e-02	-9.73604357e-03	2.09268981e-03
-1.10903305e-02	-3.49248061e-02	1.81758557e-03
3.00531623e-02	1.71910602e-02	1.34780063e-02
1.87214477e-02	-3.56844949e-02	1.10994472e-02
3.68733409e-02	-5.56180493e-03	6.47551751e-03
2.76987134e-02	-1.95081904e-02	4.73139183e-03
-8.06918165e-03	-3.90041216e-02	9.97841555e-03
1.28161737e-02	-4.63861428e-03	6.29330115e-03
3.62191224e-02	4.09729846e-03	6.11735483e-03
-4.98786423e-03	-3.98936033e-02	2.20181522e-03
2.70191574e-02	6.79682508e-03	7.48624510e-03
3.85452500e-02	6.78560861e-03	8.06067319e-03
1.64108749e-02	-3.74729126e-02	6.40504050e-03
2.94740770e-02	-2.10707898e-02	1.26930683e-02
2.47521694e-02	-3.29579135e-03	1.82232523e-02
2.44211385e-02	2.45819499e-03	8.50335160e-03
2.57027603e-02	-2.05302751e-02	7.73575210e-03
2.64743604e-02	-1.86798054e-02	1.07519132e-02
6.55518246e-03	-3.81482171e-02	1.61260263e-02
3.89093264e-02	-3.26698764e-03	1.73798264e-02
2.84457824e-02	-1.75975114e-02	7.73715131e-03
-1.06942449e-02	-3.73848751e-02	8.49839678e-03
2.13467822e-02	-1.42431171e-02	6.53471888e-03
2.25299991e-02	-1.84824757e-02	4.20396729e-03
3.03186450e-02	-2.02831369e-02	1.55019507e-03
1.84734010e-02	-3.02727222e-03	6.07627948e-03
2.54122187e-02	-2.78624602e-02	1.90794180e-03
-4.84165769e-03	-3.21336763e-02	1.80748650e-02
2.43092783e-03	-3.09298484e-02	1.67916652e-02
1.78753573e-02	-2.88885501e-02	1.90721290e-03
3.29263428e-02	-4.55938198e-03	1.43658981e-02
2.96520720e-02	-1.52567706e-02	1.89544689e-03
-9.52274743e-03	-4.04911183e-02	1.46321561e-02
2.66424251e-02	-2.97953848e-02	4.75601950e-03
2.66843677e-02	7.04278625e-03	1.16039695e-02
3.51053682e-02	1.81555402e-02	7.94644490e-03
6.24995852e-03	-1.79623472e-02	1.91511190e-03
2.13757925e-02	-1.48505435e-02	1.41932947e-02
-1.19408365e-02	-2.73798439e-02	1.12489167e-02
3.85207941e-02	-1.18849300e-02	5.76952978e-03
3.84122603e-02	-4.41644503e-04	1.81856036e-02
-1.05504212e-02	-3.53556478e-02	1.21382222e-02
2.79908072e-02	2.26468746e-02	7.31669452e-03
2.56272494e-02	1.59503641e-02	1.03665213e-02
1.22946117e-02	-3.46837655e-02	1.13420250e-02
4.98574547e-03	-3.01304301e-02	1.95291361e-03
1.20724071e-02	-3.12926791e-02	2.63693535e-03
3.91813206e-02	4.85345245e-04	4.54508862e-03
3.35033030e-03	-2.15426919e-02	1.77872183e-02
3.47806414e-02	1.79211785e-02	1.30814091e-02
1.53769306e-02	-1.60466140e-02	4.51878207e-03
3.90736638e-02	-1.04848188e-02	1.29175588e-02
2.96412479e-02	8.74676052e-03	4.01429705e-03
1.69711411e-02	9.17443410e-03	1.46270352e-03
2.16406453e-02	-1.51753669e-02	1.09475171e-02
1.49534253e-02	-2.55829328e-02	1.58456536e-02
3.31682612e-02	-7.17515695e-03	1.51105535e-02
-8.10218448e-03	-2.94882760e-02	7.23401132e-03
8.47342343e-03	-2.30997632e-02	1.44362516e-02
-1.11402932e-03	-4.10139683e-02	2.32344487e-03
1.64612588e-02	1.81611185e-03	7.47678994e-03
-3.67030256e-03	-2.66869596e-02	2.71835420e-03
2.03246857e-02	-3.50106822e-02	2.25836275e-03
1.85307797e-02	7.39025131e-03	2.23354208e-03
2.19444251e-02	-8.36278593e-03	9.08546159e-03
2.69206272e-02	-1.99995693e-02	1.51195789e-02
1.16221041e-02	-1.72262116e-02	1.40536777e-02
2.58799812e-02	-1.25895386e-02	9.15523645e-03
2.81951941e-02	2.28415242e-02	1.16933714e-02
-4.13470541e-03	-3.35624272e-02	1.16381090e-02
1.49706340e-02	-2.79731431e-02	8.67230626e-03
1.76316572e-02	-3.11683755e-02	1.40599916e-02
2.86608622e-02	2.12381573e-02	3.21517038e-03
1.98646783e-02	-8.49869702e-03	5.88113218e-03
3.79959252e-02	-5.54524845e-03	1.49108838e-02
2.08987854e-02	5.47130359e-03	2.17949239e-03
3.48067728e-02	7.97287917e-03	7.53548322e-03
2.32766055e-02	2.15930095e-02	1.60818566e-03
3.82423596e-02	-7.42696469e-03	9.45951279e-03
9.17799069e-03	-3.71309168e-02	1.81773155e-02
2.49555996e-02	-4.55647424e-03	2.45095159e-03
2.26929828e-02	4.52610248e-03	1.32449233e-02
1.39652557e-02	-2.67617301e-02	5.54086767e-03
-1.92359317e-04	-1.98228064e-02	3.81393479e-03
1.53005062e-02	-3.63771604e-02	1.78768911e-02
2.07868932e-02	-3.52005942e-02	6.30390887e-03
2.43630422e-02	1.91779921e-02	1.14680850e-02
3.14740575e-02	-1.89145938e-02	1.00232850e-02
6.76739279e-04	-3.43231004e-02	1.76164904e-02
2.24797162e-02	1.18803159e-02	1.43862761e-02
3.58511081e-03	-1.70316402e-02	8.07981243e-03
2.80594746e-02	1.73594532e-02	1.17764109e-02
3.63433834e-02	1.33775121e-02	1.73306890e-03
3.53268986e-02	-1.23599060e-03	1.78541896e-02
3.18852176e-02	2.16690336e-02	1.82854267e-02
2.63041188e-02	-6.45385338e-03	7.05923519e-03
8.83566945e-03	-3.79150763e-02	4.88817857e-03
3.20108674e-02	-6.63378797e-03	5.05353741e-03
6.52020131e-04	-2.06296250e-02	1.41800436e-02
1.01866696e-02	-3.82873353e-02	1.40937660e-02
2.94570008e-02	-2.15131741e-03	1.25644112e-02
3.21936152e-02	2.40709963e-02	9.26900194e-03
8.98886180e-03	-1.96083280e-02	3.52712386e-03
3.74042127e-02	1.29934459e-02	1.46661636e-02
1.05286403e-02	-1.19430000e-02	1.74262475e-02
3.32861507e-02	2.11393789e-02	2.34522447e-03
2.29225891e-02	-2.91249922e-02	1.57330582e-02
2.90150363e-02	-5.48631838e-03	1.45322818e-02
1.72419527e-02	-3.68230235e-02	1.50836782e-02
-2.18488958e-03	-4.08456069e-02	1.76278365e-02
2.47250567e-02	-9.11242640e-04	6.08782600e-03
1.37145037e-02	-2.89908379e-02	1.38510695e-02
3.42867740e-02	-1.21246742e-03	1.09219814e-02
2.08916884e-02	-2.24122026e-02	9.47260369e-03
9.96478898e-03	-2.61594123e-02	6.62749330e-03
2.89453238e-02	-2.22015057e-02	1.81721053e-02
-5.92641510e-03	-3.52247646e-02	1.49519193e-02
1.39397284e-04	-3.19087351e-02	1.35481601e-02
1.92562161e-02	-3.59969302e-02	1.80793679e-02
3.86234350e-02	9.02434213e-05	1.12659902e-02
2.83314793e-02	-2.37369058e-02	1.44558608e-02
2.60912887e-03	-3.30217022e-02	7.89599472e-03
6.13923009e-03	-3.49955505e-02	1.34092551e-02
5.07322915e-03	-3.61903032e-02	6.18787150e-03
3.23316470e-02	9.07243276e-03	1.42200397e-02
9.49864706e-03	-3.17748136e-02	1.14507145e-02
3.75611847e-02	-1.42886304e-02	1.52513910e-02
2.56530154e-02	-1.70877219e-02	2.09297843e-03
3.35527066e-02	-1.65961693e-02	1.35969693e-02
3.00812965e-02	-1.27019587e-02	1.38937018e-02
3.24387919e-02	1.49909497e-02	1.40702664e-02
2.85023150e-02	4.25206489e-04	2.07453089e-03
[...]
POINT_DATA 469
SCALARS Radius double 1
LOOKUP_TABLE default
2.00000000e-03
2.00000000e-03
2.00000000e-03
2.00000000e-03
2.00000000e-03
2.00000000e-03
2.00000000e-03
2.00000000e-03
2.00000000e-03
2.00000000e-03
2.00000000e-03
2.00000000e-03
2.00000000e-03
2.00000000e-03
2.00000000e-03
2.00000000e-03
2.00000000e-03
2.00000000e-03
2.00000000e-03
2.00000000e-03
2.00000000e-03
2.00000000e-03
2.00000000e-03
2.00000000e-03
2.00000000e-03
2.00000000e-03
2.00000000e-03
2.00000000e-03
2.00000000e-03
2.00000000e-03
2.00000000e-03
2.00000000e-03
2.00000000e-03
2.00000000e-03
2.00000000e-03
2.00000000e-03
2.00000000e-03
2.00000000e-03
2.00000000e-03
2.00000000e-03
2.00000000e-03
2.00000000e-03
2.00000000e-03
2.00000000e-03
2.00000000e-03
2.00000000e-03
2.00000000e-03
2.00000000e-03
2.00000000e-03
2.00000000e-03
2.00000000e-03
2.00000000e-03
2.00000000e-03
2.00000000e-03
2.00000000e-03
2.00000000e-03
2.00000000e-03
2.00000000e-03
2.00000000e-03
2.00000000e-03
2.00000000e-03
2.00000000e-03
2.00000000e-03
2.00000000e-03
2.00000000e-03
2.00000000e-03
2.00000000e-03
2.00000000e-03
2.00000000e-03
2.00000000e-03
2.00000000e-03
2.00000000e-03
2.00000000e-03
2.00000000e-03
2.00000000e-03
2.00000000e-03
2.00000000e-03
2.00000000e-03
2.00000000e-03
2.00000000e-03
2.00000000e-03
2.00000000e-03
2.00000000e-03
2.00000000e-03
2.00000000e-03
2.00000000e-03
2.00000000e-03
2.00000000e-03
2.00000000e-03
2.00000000e-03
2.00000000e-03
2.00000000e-03
2.00000000e-03
2.00000000e-03
2.00000000e-03
2.00000000e-03
2.00000000e-03
2.00000000e-03
2.00000000e-03
2.00000000e-03
2.00000000e-03
2.00000000e-03
2.00000000e-03
2.00000000e-03
2.00000000e-03
2.00000000e-03
2.00000000e-03
2.00000000e-03
2.00000000e-03
2.00000000e-03
2.00000000e-03
2.00000000e-03
2.00000000e-03
2.00000000e-03
2.00000000e-03
2.00000000e-03
2.00000000e-03
2.00000000e-03
2.00000000e-03
2.00000000e-03
2.00000000e-03
2.00000000e-03
2.00000000e-03
2.00000000e-03
2.00000000e-03
2.00000000e-03
2.00000000e-03
2.00000000e-03
2.00000000e-03
2.00000000e-03
2.00000000e-03
2.00000000e-03
2.00000000e-03
2.00000000e-03
2.00000000e-03
2.00000000e-03
2.00000000e-03
2.00000000e-03
2.00000000e-03
2.00000000e-03
2.00000000e-03
2.00000000e-03
2.00000000e-03
2.00000000e-03
2.00000000e-03
2.00000000e-03
2.00000000e-03
2.00000000e-03
2.00000000e-03
2.00000000e-03
2.00000000e-03
2.00000000e-03
2.00000000e-03
2.00000000e-03
2.00000000e-03
2.00000000e-03
2.00000000e-03
2.00000000e-03
2.00000000e-03
2.00000000e-03
2.00000000e-03
2.00000000e-03
2.00000000e-03
2.00000000e-03
2.00000000e-03
2.00000000e-03
2.00000000e-03
2.00000000e-03
2.00000000e-03
2.00000000e-03
2.00000000e-03
2.00000000e-03
2.00000000e-03
2.00000000e-03
2.00000000e-03
2.00000000e-03
2.00000000e-03
2.00000000e-03
2.00000000e-03
2.00000000e-03
2.00000000e-03
2.00000000e-03
2.00000000e-03
2.00000000e-03
2.00000000e-03
2.00000000e-03
2.00000000e-03
2.00000000e-03
2.00000000e-03
2.00000000e-03
2.00000000e-03
2.00000000e-03
2.00000000e-03
2.00000000e-03
2.00000000e-03
2.00000000e-03
2.00000000e-03
2.00000000e-03
2.00000000e-03
2.00000000e-03
2.00000000e-03
2.00000000e-03
2.00000000e-03
2.00000000e-03
2.00000000e-03
2.00000000e-03
2.00000000e-03
2.00000000e-03
2.00000000e-03
2.00000000e-03
2.00000000e-03
2.00000000e-03
2.00000000e-03
2.00000000e-03
2.00000000e-03
2.00000000e-03
2.00000000e-03
2.00000000e-03
2.00000000e-03
2.00000000e-03
2.00000000e-03
2.00000000e-03
2.00000000e-03
2.00000000e-03
2.00000000e-03
2.00000000e-03
2.00000000e-03
2.00000000e-03
2.00000000e-03
2.00000000e-03
2.00000000e-03
2.00000000e-03
2.00000000e-03
2.00000000e-03
2.00000000e-03
2.00000000e-03
2.00000000e-03
2.00000000e-03
2.00000000e-03
2.00000000e-03
2.00000000e-03
2.00000000e-03
2.00000000e-03
2.00000000e-03
2.00000000e-03
2.00000000e-03
2.00000000e-03
2.00000000e-03
2.00000000e-03
2.00000000e-03
2.00000000e-03
2.00000000e-03
2.00000000e-03
2.00000000e-03
2.00000000e-03
2.00000000e-03
2.00000000e-03
2.00000000e-03
2.00000000e-03
2.00000000e-03
2.00000000e-03
2.00000000e-03
2.00000000e-03
2.00000000e-03
2.00000000e-03
2.00000000e-03
2.00000000e-03
2.00000000e-03
2.00000000e-03
2.00000000e-03
2.00000000e-03
2.00000000e-03
2.00000000e-03
2.00000000e-03
2.00000000e-03
2.00000000e-03
2.00000000e-03
2.00000000e-03
2.00000000e-03
2.00000000e-03
2.00000000e-03
2.00000000e-03
2.00000000e-03
2.00000000e-03
2.00000000e-03
2.00000000e-03
2.00000000e-03
2.00000000e-03
2.00000000e-03
2.00000000e-03
2.00000000e-03
2.00000000e-03
2.00000000e-03
2.00000000e-03
2.00000000e-03
2.00000000e-03
2.00000000e-03
2.00000000e-03
2.00000000e-03
2.00000000e-03
2.00000000e-03
2.00000000e-03
2.00000000e-03
2.00000000e-03
2.00000000e-03
2.00000000e-03
2.00000000e-03
2.00000000e-03
2.00000000e-03
2.00000000e-03
2.00000000e-03
2.00000000e-03
2.00000000e-03
2.00000000e-03
2.00000000e-03
2.00000000e-03
2.00000000e-03
2.00000000e-03
2.00000000e-03
2.00000000e-03
2.00000000e-03
2.00000000e-03
2.00000000e-03
2.00000000e-03
2.00000000e-03
2.00000000e-03
2.00000000e-03
2.00000000e-03
2.00000000e-03
2.00000000e-03
2.00000000e-03
2.00000000e-03
2.00000000e-03
2.00000000e-03
2.00000000e-03
2.00000000e-03
2.00000000e-03
2.00000000e-03
2.00000000e-03
2.00000000e-03
2.00000000e-03
2.00000000e-03
2.00000000e-03
2.00000000e-03
2.00000000e-03
2.00000000e-03
2.00000000e-03
2.00000000e-03
2.00000000e-03
2.00000000e-03
2.00000000e-03
2.00000000e-03
2.00000000e-03
2.00000000e-03
2.00000000e-03
2.00000000e-03
2.00000000e-03
2.00000000e-03
2.00000000e-03
2.00000000e-03
2.00000000e-03
2.00000000e-03
2.00000000e-03
2.00000000e-03
2.00000000e-03
2.00000000e-03
2.00000000e-03
2.00000000e-03
2.00000000e-03
2.00000000e-03
2.00000000e-03
2.00000000e-03
2.00000000e-03
2.00000000e-03
2.00000000e-03
2.00000000e-03
2.00000000e-03
2.00000000e-03
2.00000000e-03
2.00000000e-03
2.00000000e-03
2.00000000e-03
2.00000000e-03
2.00000000e-03
2.00000000e-03
2.00000000e-03
2.00000000e-03
2.00000000e-03
2.00000000e-03
2.00000000e-03
2.00000000e-03
2.00000000e-03
2.00000000e-03
2.00000000e-03
2.00000000e-03
2.00000000e-03
2.00000000e-03
2.00000000e-03
2.00000000e-03
2.00000000e-03
2.00000000e-03
2.00000000e-03
2.00000000e-03
2.00000000e-03
2.00000000e-03
2.00000000e-03
2.00000000e-03
2.00000000e-03
2.00000000e-03
2.00000000e-03
2.00000000e-03
2.00000000e-03
2.00000000e-03
2.00000000e-03
2.00000000e-03
2.00000000e-03
2.00000000e-03
2.00000000e-03
2.00000000e-03
2.00000000e-03
2.00000000e-03
2.00000000e-03
2.00000000e-03
2.00000000e-03
2.00000000e-03
2.00000000e-03
2.00000000e-03
2.00000000e-03
2.00000000e-03
2.00000000e-03
2.00000000e-03
2.00000000e-03
2.00000000e-03
2.00000000e-03
2.00000000e-03
2.00000000e-03
2.00000000e-03
2.00000000e-03
2.00000000e-03
2.00000000e-03
2.00000000e-03
2.00000000e-03
2.00000000e-03
2.00000000e-03
2.00000000e-03
2.00000000e-03
2.00000000e-03
2.00000000e-03
2.00000000e-03
2.00000000e-03
2.00000000e-03
2.00000000e-03
2.00000000e-03
2.00000000e-03
2.00000000e-03
2.00000000e-03
2.00000000e-03
2.00000000e-03
2.00000000e-03
2.00000000e-03
2.00000000e-03
2.00000000e-03
2.00000000e-03
2.00000000e-03
2.00000000e-03
2.00000000e-03
2.00000000e-03
2.00000000e-03
2.00000000e-03
