# vtk DataFile Version 2.0
Particle data
ASCII
DATASET POLYDATA
POINTS 469 double
2.29753383e-02	-2.93193823e-02	1.49583234e-02
2.16330378e-02	-2.00314706e-02	1.19979244e-02
-5.43776351e-04	-3.93482227e-02	1.42014047e-02
3.17883406e-02	5.94228574e-04	8.55077990e-03
2.64435974e-02	-1.51818469e-02	1.63408803e-03
1.65906290e-02	-3.22502140e-02	2.64309297e-03
1.32925601e-02	-3.84590541e-02	1.84560167e-02
2.81602973e-02	5.69848734e-03	1.80383388e-02
-1.20034899e-02	-3.53908633e-02	1.71792766e-02
3.22638653e-02	1.42530815e-02	1.90782165e-02
2.64814006e-02	-2.69940683e-02	7.65004516e-03
1.47029413e-02	-2.82236865e-02	1.88014387e-02
-3.15519146e-04	-1.92386918e-02	1.00591386e-02
1.36777947e-02	-2.29329173e-02	5.05925466e-03
2.83449802e-02	-2.06480761e-02	1.42503605e-02
3.84727695e-02	6.39310864e-03	1.15300119e-02
2.00134159e-02	-7.40910440e-03	5.20937474e-03
1.25862326e-02	-2.28363503e-02	2.94818419e-03
2.49506700e-02	-2.23580486e-03	1.25370436e-02
2.44707832e-02	-2.99945423e-02	4.75651626e-03
2.97473852e-02	-2.38680923e-02	2.36571195e-03
-4.64309625e-03	-3.33343151e-02	1.75930903e-02
3.94674215e-02	3.59333780e-03	1.67739790e-03
2.40398361e-03	-3.67563161e-02	5.93576088e-03
8.52554458e-03	-3.13366420e-02	5.53180251e-03
3.39134501e-02	1.69685830e-02	7.62394899e-03
3.75414232e-02	-1.31995987e-02	1.37491409e-02
6.26675045e-03	-3.40504802e-02	1.78687053e-02
3.57763304e-02	-3.21208505e-03	1.15782385e-02
1.57501659e-02	-3.92156609e-03	1.68749467e-02
1.81153305e-02	-2.60020316e-02	9.60754481e-03
-1.19376470e-02	-3.85073975e-02	8.74047706e-03
1.29702800e-02	-2.79737498e-02	8.14760012e-03
4.27271179e-03	-2.58244677e-02	1.64793194e-02
2.36301466e-02	1.18666712e-02	1.08964857e-02
1.05415443e-02	-2.53597348e-02	1.21144112e-02
2.36174970e-02	-3.16690460e-02	9.46840175e-03
3.92352055e-02	-9.79850291e-03	9.73544580e-03
1.60310561e-02	-2.90541124e-02	1.38308578e-02
2.22447170e-02	-2.45107860e-02	4.79793903e-03
3.61726509e-02	-6.17159102e-03	1.18606591e-02
3.82903551e-03	-3.74316294e-02	1.59868315e-02
2.96845811e-02	2.01494387e-02	2.86995054e-03
2.30579575e-02	-2.84735527e-02	1.83408965e-02
1.15008583e-02	-1.44327215e-02	1.48072944e-02
3.03695732e-02	-1.96517144e-02	1.08766741e-02
2.60755611e-02	-1.04514196e-02	9.05616316e-03
3.46656068e-02	-1.37019587e-02	1.33041554e-02
2.31994153e-02	-6.37313506e-03	9.62573930e-03
2.76942126e-02	-2.99000653e-02	1.85793268e-02
2.73420340e-02	3.48251436e-03	1.31053667e-03
2.43683897e-02	-1.23660268e-02	7.74322582e-03
3.83802170e-02	-1.29422475e-02	1.32505655e-02
2.18989369e-02	4.32597685e-04	2.99714512e-03
3.52555860e-02	1.20467935e-02	1.18085209e-02
3.22140948e-02	1.17886704e-03	1.51370224e-02
3.57613483e-02	1.36677031e-02	8.97289383e-03
3.26372199e-02	-1.25326864e-02	1.78500680e-02
1.29870565e-02	-4.71478615e-03	1.24730059e-02
2.19459614e-02	3.11992835e-03	1.35084490e-02
1.16064698e-02	-5.96080688e-03	1.36709441e-02
9.82906409e-03	-1.99523137e-02	1.34027271e-02
1.93396103e-02	-6.73703076e-03	1.81388511e-02
3.56748074e-02	2.20275661e-03	9.27612247e-03
6.40488945e-03	-2.65373049e-02	4.80390032e-03
2.86737461e-02	-1.94002924e-02	5.46450210e-03
3.60188902e-02	2.31151664e-02	3.02562223e-03
1.37552610e-02	-2.58690984e-02	1.48162281e-02
2.95730724e-02	1.36322637e-02	5.52744658e-03
-1.90427000e-03	-2.31048044e-02	4.22678884e-03
3.66020942e-02	-4.22765419e-03	8.52373898e-03
-8.54752184e-03	-3.10996297e-02	3.91737268e-03
2.61238068e-02	-3.06542264e-02	1.76534973e-02
2.76955498e-02	-2.67607697e-02	1.36467479e-02
-7.28326585e-04	-4.04483912e-02	3.55160822e-03
3.36730558e-02	-3.97304324e-03	1.71428076e-02
1.81842151e-02	-5.10082611e-03	5.35743161e-03
1.80803690e-02	-3.50408448e-02	6.27430089e-03
1.74245875e-03	-1.05898964e-02	1.79673071e-02
3.68357903e-02	4.09269658e-03	1.86228250e-02
3.21428130e-02	-1.35587604e-02	1.01777413e-02
2.04151855e-02	-9.54183091e-03	9.92468660e-03
1.01573282e-02	-1.56916136e-02	9.12438864e-03
6.68895856e-03	-1.92128749e-02	1.84020213e-02
5.90394494e-03	-1.30031520e-02	2.37317433e-03
3.27513332e-02	-2.63248021e-02	3.14327186e-03
2.17096911e-02	-1.73700897e-02	1.77895993e-02
3.97637093e-02	5.74863623e-03	1.06709796e-02
8.64683383e-03	-1.97810188e-02	6.27502852e-03
2.55652692e-02	6.28138155e-03	4.46613534e-03
3.54416763e-02	-1.67833171e-02	9.39631822e-03
2.58711542e-02	-2.49852105e-02	4.87240731e-03
-5.48997256e-03	-3.68140483e-02	9.33678486e-03
3.56652301e-02	-1.58519135e-02	8.38938489e-04
1.09217234e-02	-2.78596786e-02	1.12247201e-02
-1.56368139e-02	-3.45956540e-02	1.71246396e-02
4.03690018e-02	5.78616860e-03	6.87175075e-03
2.95701387e-02	1.59836880e-02	1.25967868e-02
2.61850826e-03	-3.09556714e-02	1.17974222e-02
1.55421581e-02	-3.02318298e-02	9.73457310e-03
2.77233649e-02	9.48174040e-03	8.81640155e-03
2.71349370e-02	3.73855066e-03	9.25608249e-03
3.64979242e-02	-3.99937452e-03	1.58279561e-02
-3.40673463e-03	-2.59818755e-02	1.69552331e-02
1.81346200e-02	-1.36874661e-03	1.06601956e-02
3.25599669e-02	-2.63555220e-02	1.10251601e-02
1.42990466e-02	-1.66608454e-02	8.46082528e-03
2.10497074e-02	-2.24421306e-04	7.00676865e-03
3.17939141e-02	1.76110071e-02	2.33155524e-03
2.24887318e-02	-2.16693877e-02	9.03248003e-03
3.37757115e-02	1.13079873e-02	2.45337484e-03
3.26130507e-02	-1.97008200e-02	1.81472732e-02
3.20700046e-02	-8.85699127e-03	1.73499158e-02
3.17820268e-02	6.45819055e-03	1.99035935e-03
-2.21502986e-03	-1.94520152e-02	1.60679743e-02
2.03152550e-02	8.13646556e-03	1.87390380e-03
3.19414199e-02	-2.42477081e-02	1.44831933e-02
3.60482068e-02	8.01930141e-03	4.36775171e-03
2.00511559e-02	-1.80752482e-02	5.51790906e-03
6.95342771e-03	-4.07075061e-02	2.84451328e-03
3.11004364e-02	-1.42847064e-02	2.27004734e-03
4.34515293e-03	-2.08530430e-02	1.48804179e-02
2.06318595e-02	-3.34650688e-02	1.67661521e-02
1.46991411e-02	9.32072778e-04	5.06473837e-03
-8.21533259e-03	-3.68516520e-02	1.77483256e-02
3.19392284e-02	-2.66071889e-02	1.49237442e-02
1.36062267e-02	-3.45832517e-02	5.51722927e-03
1.71907791e-02	-3.23999345e-02	1.18055499e-02
3.31620466e-02	-1.81623177e-03	1.03724051e-02
2.97306045e-02	-1.06491100e-02	1.78151356e-03
3.26366312e-02	2.87565190e-03	1.64993736e-03
-8.88992809e-03	-3.05578524e-02	9.78423023e-03
2.91132498e-02	-1.65307893e-02	2.00723702e-02
1.11758945e-02	-3.53814458e-02	8.45231345e-03
1.79766237e-02	-1.50859909e-02	5.34607748e-03
2.34991204e-02	6.27560480e-03	1.02874555e-02
1.57567738e-02	-2.31752876e-02	6.81832487e-03
1.56878785e-02	-3.56457517e-02	1.44843531e-03
5.27356058e-03	-1.84536258e-02	1.17361058e-02
2.74822399e-02	2.29112653e-03	1.38511112e-02
1.91947311e-02	5.41112882e-03	1.79589253e-02
2.93787072e-02	-2.85271582e-02	1.03794156e-02
2.72159678e-02	-6.76639885e-03	1.23159311e-02
3.86698370e-02	-9.98612353e-03	9.62032770e-04
1.72194200e-02	-3.17927870e-02	5.63491968e-03
2.81923828e-02	-2.78182737e-02	2.80179366e-03
4.13654598e-02	7.33258462e-03	1.33577713e-03
2.24956223e-02	-2.47728052e-02	1.86013364e-03
1.94808175e-02	-1.43162067e-02	1.10767453e-02
2.87219220e-02	1.15353123e-02	1.43512593e-02
2.81584531e-02	-1.10674889e-02	1.76610957e-02
1.57304793e-02	-1.17307926e-02	1.13438697e-02
1.60656938e-02	-3.23914280e-02	9.17215902e-03
3.05497021e-02	-1.44058126e-02	1.19468737e-02
2.68650737e-02	-2.26148637e-03	6.81810998e-03
3.23528558e-02	5.71716156e-03	1.55129046e-02
1.26890614e-02	-3.24872384e-02	2.03931987e-03
2.22606453e-02	-1.36000268e-02	5.34620890e-03
-2.70106857e-03	-1.62596831e-02	1.44172914e-02
1.89302906e-02	-2.41003423e-02	5.59145643e-03
6.80042302e-03	-3.58666560e-02	9.49836743e-03
1.96457081e-02	-3.45985117e-02	2.33077493e-03
1.12638925e-02	-6.68920681e-03	7.37396434e-03
3.56367758e-02	-1.00337900e-03	1.80983609e-02
1.30595216e-02	-1.14159181e-02	7.13551629e-03
1.99351457e-02	-2.40492921e-02	1.31038535e-02
3.05794703e-02	7.33102565e-04	4.97211595e-03
1.53624331e-02	-3.74643383e-02	8.27083280e-03
3.55959212e-02	1.75182605e-03	1.85153877e-02
3.78802677e-02	5.86058944e-03	7.26109570e-03
7.76309393e-03	-3.80413733e-02	1.60070304e-02
2.96444195e-02	1.38332133e-02	1.04906331e-02
3.62550118e-02	-1.27132007e-02	1.76379060e-02
1.82235559e-02	-2.42720353e-02	1.66731522e-02
2.25023458e-02	-3.31429895e-02	1.77360380e-02
-3.15231907e-03	-3.99434790e-02	1.09620148e-02
5.21810040e-03	-2.71265922e-02	2.16368960e-03
-3.57008286e-03	-2.83040584e-02	1.23253674e-02
-2.92604013e-03	-3.78023359e-02	1.52217052e-02
-4.21755577e-03	-3.55495423e-02	5.73508561e-03
3.58298388e-02	-2.62285217e-03	4.23455622e-03
1.04544494e-02	-1.69919294e-02	5.25422425e-03
3.08969562e-02	-2.67294240e-02	1.84989561e-02
3.84171596e-02	-3.84439996e-03	1.44333641e-02
6.89965249e-03	-2.88740158e-02	1.84137595e-02
9.40000043e-03	-3.37206619e-02	9.70030349e-03
2.58718403e-02	-1.10277241e-02	2.43777265e-03
3.61531468e-03	-3.55476180e-02	1.21677632e-02
2.20977654e-02	-2.91672739e-02	1.80686672e-02
7.32276902e-03	-3.46713507e-02	2.57676993e-03
3.49005437e-02	9.93796941e-03	1.64497877e-02
1.44868228e-02	-1.25055522e-02	1.73415398e-02
3.95360530e-02	4.03682411e-03	1.39178027e-02
3.48447137e-02	-1.01923185e-02	1.72399245e-02
2.18367269e-02	-1.79171933e-02	2.22995898e-03
2.96405775e-02	7.74755080e-04	1.25072791e-02
2.39053729e-03	-3.01545736e-02	1.42766475e-02
2.14585695e-02	-1.74469163e-03	1.00407278e-02
2.58530955e-02	-4.12873475e-03	5.07664679e-03
2.75668892e-02	1.49555913e-02	1.87102663e-02
3.45997028e-02	-1.34257200e-02	1.38041336e-02
3.11796776e-02	-1.06580806e-02	1.48987998e-02
3.86557651e-02	4.96214341e-03	1.81499031e-02
-5.21053088e-03	-3.27074836e-02	1.34440177e-02
3.35067727e-02	1.38170773e-02	1.35309696e-02
3.25153263e-02	-8.42041115e-03	8.27300187e-03
3.23253215e-02	-7.84466001e-03	1.34450516e-02
3.83161467e-02	-7.11208678e-03	6.01940395e-03
1.48528680e-02	-2.34275876e-02	1.55412973e-02
3.15959417e-02	-4.74402823e-03	1.21446466e-02
2.05184184e-02	6.13900140e-03	1.48012453e-02
1.57293553e-02	-1.71743485e-03	1.54132635e-03
2.46739055e-02	8.55865078e-03	1.10765704e-02
9.13337419e-03	-1.14380873e-02	1.36623944e-02
2.25809596e-02	-1.42103296e-02	1.57831743e-02
1.33860897e-02	-2.01905868e-02	1.99968946e-03
[...]
POINT_DATA 469
SCALARS Radius double 1
LOOKUP_TABLE default
2.00000000e-03
2.00000000e-03
2.00000000e-03
2.00000000e-03
2.00000000e-03
2.00000000e-03
2.00000000e-03
2.00000000e-03
2.00000000e-03
2.00000000e-03
2.00000000e-03
2.00000000e-03
2.00000000e-03
2.00000000e-03
2.00000000e-03
2.00000000e-03
2.00000000e-03
2.00000000e-03
2.00000000e-03
2.00000000e-03
2.00000000e-03
2.00000000e-03
2.00000000e-03
2.00000000e-03
2.00000000e-03
2.00000000e-03
2.00000000e-03
2.00000000e-03
2.00000000e-03
2.00000000e-03
2.00000000e-03
2.00000000e-03
2.00000000e-03
2.00000000e-03
2.00000000e-03
2.00000000e-03
2.00000000e-03
2.00000000e-03
2.00000000e-03
2.00000000e-03
2.00000000e-03
2.00000000e-03
2.00000000e-03
2.00000000e-03
2.00000000e-03
2.00000000e-03
2.00000000e-03
2.00000000e-03
2.00000000e-03
2.00000000e-03
2.00000000e-03
2.00000000e-03
2.00000000e-03
2.00000000e-03
2.00000000e-03
2.00000000e-03
2.00000000e-03
2.00000000e-03
2.00000000e-03
2.00000000e-03
2.00000000e-03
2.00000000e-03
2.00000000e-03
2.00000000e-03
2.00000000e-03
2.00000000e-03
2.00000000e-03
2.00000000e-03
2.00000000e-03
2.00000000e-03
2.00000000e-03
2.00000000e-03
2.00000000e-03
2.00000000e-03
2.00000000e-03
2.00000000e-03
2.00000000e-03
2.00000000e-03
2.00000000e-03
2.00000000e-03
2.00000000e-03
2.00000000e-03
2.00000000e-03
2.00000000e-03
2.00000000e-03
2.00000000e-03
2.00000000e-03
2.00000000e-03
2.00000000e-03
2.00000000e-03
2.00000000e-03
2.00000000e-03
2.00000000e-03
2.00000000e-03
2.00000000e-03
2.00000000e-03
2.00000000e-03
2.00000000e-03
2.00000000e-03
2.00000000e-03
2.00000000e-03
2.00000000e-03
2.00000000e-03
2.00000000e-03
2.00000000e-03
2.00000000e-03
2.00000000e-03
2.00000000e-03
2.00000000e-03
2.00000000e-03
2.00000000e-03
2.00000000e-03
2.00000000e-03
2.00000000e-03
2.00000000e-03
2.00000000e-03
2.00000000e-03
2.00000000e-03
2.00000000e-03
2.00000000e-03
2.00000000e-03
2.00000000e-03
2.00000000e-03
2.00000000e-03
2.00000000e-03
2.00000000e-03
2.00000000e-03
2.00000000e-03
2.00000000e-03
2.00000000e-03
2.00000000e-03
2.00000000e-03
2.00000000e-03
2.00000000e-03
2.00000000e-03
2.00000000e-03
2.00000000e-03
2.00000000e-03
2.00000000e-03
2.00000000e-03
2.00000000e-03
2.00000000e-03
2.00000000e-03
2.00000000e-03
2.00000000e-03
2.00000000e-03
2.00000000e-03
2.00000000e-03
2.00000000e-03
2.00000000e-03
2.00000000e-03
2.00000000e-03
2.00000000e-03
2.00000000e-03
2.00000000e-03
2.00000000e-03
2.00000000e-03
2.00000000e-03
2.00000000e-03
2.00000000e-03
2.00000000e-03
2.00000000e-03
2.00000000e-03
2.00000000e-03
2.00000000e-03
2.00000000e-03
2.00000000e-03
2.00000000e-03
2.00000000e-03
2.00000000e-03
2.00000000e-03
2.00000000e-03
2.00000000e-03
2.00000000e-03
2.00000000e-03
2.00000000e-03
2.00000000e-03
2.00000000e-03
2.00000000e-03
2.00000000e-03
2.00000000e-03
2.00000000e-03
2.00000000e-03
2.00000000e-03
2.00000000e-03
2.00000000e-03
2.00000000e-03
2.00000000e-03
2.00000000e-03
2.00000000e-03
2.00000000e-03
2.00000000e-03
2.00000000e-03
2.00000000e-03
2.00000000e-03
2.00000000e-03
2.00000000e-03
2.00000000e-03
2.00000000e-03
2.00000000e-03
2.00000000e-03
2.00000000e-03
2.00000000e-03
2.00000000e-03
2.00000000e-03
2.00000000e-03
2.00000000e-03
2.00000000e-03
2.00000000e-03
2.00000000e-03
2.00000000e-03
2.00000000e-03
2.00000000e-03
2.00000000e-03
2.00000000e-03
2.00000000e-03
2.00000000e-03
2.00000000e-03
2.00000000e-03
2.00000000e-03
2.00000000e-03
2.00000000e-03
2.00000000e-03
2.00000000e-03
2.00000000e-03
2.00000000e-03
2.00000000e-03
2.00000000e-03
2.00000000e-03
2.00000000e-03
2.00000000e-03
2.00000000e-03
2.00000000e-03
2.00000000e-03
2.00000000e-03
2.00000000e-03
2.00000000e-03
2.00000000e-03
2.00000000e-03
2.00000000e-03
2.00000000e-03
2.00000000e-03
2.00000000e-03
2.00000000e-03
2.00000000e-03
2.00000000e-03
2.00000000e-03
2.00000000e-03
2.00000000e-03
2.00000000e-03
2.00000000e-03
2.00000000e-03
2.00000000e-03
2.00000000e-03
2.00000000e-03
2.00000000e-03
2.00000000e-03
2.00000000e-03
2.00000000e-03
2.00000000e-03
2.00000000e-03
2.00000000e-03
2.00000000e-03
2.00000000e-03
2.00000000e-03
2.00000000e-03
2.00000000e-03
2.00000000e-03
2.00000000e-03
2.00000000e-03
2.00000000e-03
2.00000000e-03
2.00000000e-03
2.00000000e-03
2.00000000e-03
2.00000000e-03
2.00000000e-03
2.00000000e-03
2.00000000e-03
2.00000000e-03
2.00000000e-03
2.00000000e-03
2.00000000e-03
2.00000000e-03
2.00000000e-03
2.00000000e-03
2.00000000e-03
2.00000000e-03
2.00000000e-03
2.00000000e-03
2.00000000e-03
2.00000000e-03
2.00000000e-03
2.00000000e-03
2.00000000e-03
2.00000000e-03
2.00000000e-03
2.00000000e-03
2.00000000e-03
2.00000000e-03
2.00000000e-03
2.00000000e-03
2.00000000e-03
2.00000000e-03
2.00000000e-03
2.00000000e-03
2.00000000e-03
2.00000000e-03
2.00000000e-03
2.00000000e-03
2.00000000e-03
2.00000000e-03
2.00000000e-03
2.00000000e-03
2.00000000e-03
2.00000000e-03
2.00000000e-03
2.00000000e-03
2.00000000e-03
2.00000000e-03
2.00000000e-03
2.00000000e-03
2.00000000e-03
2.00000000e-03
2.00000000e-03
2.00000000e-03
2.00000000e-03
2.00000000e-03
2.00000000e-03
2.00000000e-03
2.00000000e-03
2.00000000e-03
2.00000000e-03
2.00000000e-03
2.00000000e-03
2.00000000e-03
2.00000000e-03
2.00000000e-03
2.00000000e-03
2.00000000e-03
2.00000000e-03
2.00000000e-03
2.00000000e-03
2.00000000e-03
2.00000000e-03
2.00000000e-03
2.00000000e-03
2.00000000e-03
2.00000000e-03
2.00000000e-03
2.00000000e-03
2.00000000e-03
2.00000000e-03
2.00000000e-03
2.00000000e-03
2.00000000e-03
2.00000000e-03
2.00000000e-03
2.00000000e-03
2.00000000e-03
2.00000000e-03
2.00000000e-03
2.00000000e-03
2.00000000e-03
2.00000000e-03
2.00000000e-03
2.00000000e-03
2.00000000e-03
2.00000000e-03
2.00000000e-03
2.00000000e-03
2.00000000e-03
2.00000000e-03
2.00000000e-03
2.00000000e-03
2.00000000e-03
2.00000000e-03
2.00000000e-03
2.00000000e-03
2.00000000e-03
2.00000000e-03
2.00000000e-03
2.00000000e-03
2.00000000e-03
2.00000000e-03
2.00000000e-03
2.00000000e-03
2.00000000e-03
2.00000000e-03
2.00000000e-03
2.00000000e-03
2.00000000e-03
2.00000000e-03
2.00000000e-03
2.00000000e-03
2.00000000e-03
2.00000000e-03
2.00000000e-03
2.00000000e-03
2.00000000e-03
2.00000000e-03
2.00000000e-03
2.00000000e-03
2.00000000e-03
2.00000000e-03
2.00000000e-03
2.00000000e-03
2.00000000e-03
2.00000000e-03
2.00000000e-03
2.00000000e-03
2.00000000e-03
2.00000000e-03
2.00000000e-03
2.00000000e-03
2.00000000e-03
2.00000000e-03
2.00000000e-03
2.00000000e-03
2.00000000e-03
2.00000000e-03
2.00000000e-03
2.00000000e-03
2.00000000e-03
2.00000000e-03
2.00000000e-03
2.00000000e-03
2.00000000e-03
2.00000000e-03
2.00000000e-03
2.00000000e-03
2.00000000e-03
2.00000000e-03
2.00000000e-03
2.00000000e-03
2.00000000e-03
2.00000000e-03
2.00000000e-03
2.00000000e-03
2.00000000e-03
2.00000000e-03
2.00000000e-03
2.00000000e-03
2.00000000e-03
2.00000000e-03
2.00000000e-03
2.00000000e-03
2.00000000e-03
2.00000000e-03
2.00000000e-03
2.00000000e-03
2.00000000e-03
2.00000000e-03
2.00000000e-03
2.00000000e-03
2.00000000e-03
2.00000000e-03
2.00000000e-03
2.00000000e-03
2.00000000e-03
2.00000000e-03
2.00000000e-03
2.00000000e-03
2.00000000e-03
2.00000000e-03
2.00000000e-03
2.00000000e-03
2.00000000e-03
2.00000000e-03
