# vtk DataFile Version 2.0
Particle data
ASCII
DATASET POLYDATA
POINTS 469 double
1.36445418e-02	-3.31461901e-02	8.54367481e-03
5.83146704e-03	-2.74461266e-02	1.12501611e-02
1.03282692e-02	-7.58360999e-03	1.95608249e-03
3.98382554e-02	4.97799979e-04	1.79383389e-02
7.15669685e-03	-1.76875272e-02	2.70234640e-03
1.79770095e-02	-3.62891013e-02	2.55709437e-03
1.14396190e-02	-3.16253812e-02	1.14805091e-02
2.62184478e-02	-1.22587538e-02	1.75007371e-02
-4.85958795e-03	-3.25030631e-02	1.80416341e-02
3.43199261e-02	1.44566477e-02	1.14814838e-02
2.27490213e-02	-3.29180480e-02	1.78374237e-02
6.09822846e-03	-2.99784884e-02	1.73143855e-02
-1.22281146e-02	-3.20931682e-02	1.16227469e-02
1.78195266e-02	6.24383857e-03	1.99253728e-03
1.97457194e-02	-3.49946964e-02	1.45728733e-02
3.31203116e-02	1.24748595e-03	1.20454007e-02
3.62269667e-02	-4.29796251e-03	1.41774453e-02
-5.37656429e-05	-3.36143597e-02	1.98402200e-03
2.87546097e-02	-1.32995928e-02	1.40949588e-02
2.48677159e-02	-2.89348937e-02	1.09893962e-02
2.67939686e-02	-2.46369858e-02	2.07223334e-03
-9.05394017e-03	-3.24107178e-02	1.80637419e-02
3.71611285e-02	4.28848907e-03	1.13758725e-02
2.16028371e-02	-1.08411470e-02	2.45618485e-03
2.22341379e-02	7.40813997e-03	2.23014366e-03
3.56111199e-02	9.89685813e-03	1.46957198e-02
3.42292342e-02	-2.04251805e-02	1.41881181e-02
-3.94885236e-03	-3.65269724e-02	1.29462084e-02
3.94065855e-02	-7.32210329e-03	1.62100881e-02
1.82005161e-02	-1.39358775e-02	1.36471606e-02
-1.85819024e-03	-3.15028821e-02	1.15950212e-02
3.11546435e-03	-4.11815192e-02	2.10033790e-03
1.63129374e-03	-3.55169798e-02	5.34060150e-03
2.10357996e-02	2.58896288e-03	1.79631773e-02
2.67270297e-02	5.70555933e-03	9.20194573e-03
1.45892519e-02	9.29014960e-04	9.62590459e-03
1.87903620e-02	-3.41728136e-02	6.34769118e-03
3.34238598e-02	-1.45093112e-02	9.63938421e-03
8.05723928e-03	-3.10062333e-02	1.06791107e-02
2.04242088e-02	-2.57351235e-04	2.27971292e-03
3.19337150e-02	-1.72956440e-02	7.94227436e-03
2.03902892e-03	-3.72590636e-02	1.53071919e-02
2.54385230e-02	1.55033618e-02	2.02723374e-03
1.40457678e-02	-2.41301065e-02	1.49633818e-02
3.49421264e-02	4.93975666e-03	1.45009023e-02
2.74180468e-02	-2.41656634e-02	1.12417287e-02
2.08124420e-02	-2.21985919e-02	1.38144359e-02
2.06490199e-02	-2.01855269e-02	5.57062892e-03
2.20620186e-02	-1.35716958e-02	1.03743759e-02
1.24048710e-02	-2.83745904e-02	1.80480834e-02
1.59943736e-02	-1.64233424e-02	2.39151636e-03
1.84862261e-02	-1.35199245e-02	3.57070187e-03
3.64497509e-02	1.17831371e-03	1.66065231e-02
2.69325535e-02	-1.07608811e-02	8.41481899e-03
3.92044872e-02	8.48331778e-03	4.14246369e-03
3.85038577e-02	-1.09011570e-02	1.42431760e-02
3.45488426e-02	1.09112200e-02	9.31467591e-03
2.41118443e-02	-2.23683903e-02	1.51561065e-02
3.65176248e-02	1.56618637e-02	1.43211487e-02
3.30140564e-02	1.56546888e-02	1.70611694e-02
2.28300024e-02	1.88963112e-02	1.74289690e-02
2.47293226e-02	-3.14313590e-03	1.14056953e-02
1.71313976e-02	-2.07694242e-02	1.82266829e-02
3.61027869e-02	-5.97892484e-03	1.03436698e-02
4.60643775e-03	-1.43929380e-02	6.63291325e-03
2.78865009e-02	-2.84596631e-02	6.70638488e-03
2.79598380e-02	1.65098830e-02	5.44482765e-03
2.72985786e-03	-3.00974823e-02	1.79220346e-02
3.80776366e-02	1.26135490e-02	1.18400967e-02
2.05654798e-02	1.16020689e-02	9.90472691e-03
3.54072438e-02	-1.79701575e-02	6.39612778e-03
-9.58107269e-03	-3.41768876e-02	2.27429872e-03
1.82595618e-02	-2.96033853e-02	1.78773017e-02
3.04997230e-02	-2.11076675e-02	8.63544834e-03
6.66880229e-03	-3.92237774e-02	5.76684931e-03
3.34417385e-02	-2.14256178e-02	1.80243860e-02
3.02124923e-02	-1.25739971e-02	5.83459574e-03
1.08235873e-02	-2.66710215e-02	8.54895734e-03
-6.08847950e-04	-2.30857490e-02	1.21101528e-02
2.33356066e-02	-9.13052779e-03	1.81107606e-02
2.47636336e-02	-2.16397816e-02	5.22017066e-03
2.13321670e-02	1.03578864e-03	7.72860133e-03
2.93554115e-02	1.40527447e-02	2.03424262e-03
2.53641654e-02	1.85696572e-02	1.76438206e-02
2.46321628e-02	4.84208609e-03	1.84260632e-03
2.84709306e-02	-2.82259953e-02	1.90224097e-03
5.83681047e-03	-3.62819986e-02	1.42757366e-02
3.66246520e-02	2.56060409e-04	1.27497223e-02
2.41608838e-02	9.32549648e-03	5.96256240e-03
3.10034815e-02	-4.65131585e-03	6.90629214e-03
2.86644699e-02	-2.23631277e-02	5.20788442e-03
1.25627787e-02	-2.82774784e-02	2.15723216e-03
-3.59210074e-03	-2.83742883e-02	6.42355973e-03
3.48426359e-02	-1.93389095e-02	1.00155243e-02
1.64976995e-02	2.63486261e-06	1.45630170e-02
-9.19088513e-03	-3.81466957e-02	7.76377895e-03
3.60087827e-02	-1.19866000e-03	8.84809980e-03
3.07330194e-02	9.23757896e-03	1.81567436e-02
1.97112081e-02	-1.26516981e-02	1.78551476e-02
1.59134751e-02	-1.05644030e-02	1.38444972e-02
3.03352095e-02	-1.08978432e-03	2.05824966e-03
3.01368272e-02	-1.59153583e-03	1.15480115e-02
3.42964355e-02	-7.78794567e-03	1.34479216e-02
-1.52185223e-02	-3.18664828e-02	1.56205819e-02
3.47382513e-02	6.42508242e-03	9.26393584e-03
2.27785913e-02	-1.43396676e-02	1.89043445e-03
3.30046820e-02	9.85768689e-04	2.14130488e-03
2.42146135e-02	-8.63785278e-03	2.54747523e-03
2.72429756e-02	1.77878998e-02	1.86784344e-03
1.20728067e-02	-1.55278955e-02	6.12631046e-03
3.32677362e-02	-2.61954997e-03	4.50338398e-03
2.93193565e-02	-2.28205542e-02	1.80772642e-02
2.37569965e-02	-2.48757916e-02	1.17858568e-02
3.62146501e-02	-1.60189445e-03	2.42611985e-03
2.45026106e-02	1.40238795e-02	1.82058309e-02
3.24450645e-02	1.17203767e-02	2.07663794e-03
3.73784930e-02	-1.39946038e-02	1.00771993e-02
3.11293229e-02	3.22819290e-03	9.22743340e-03
2.49722893e-03	-2.83271397e-02	1.05200295e-02
3.71921045e-03	-3.88675521e-02	6.15879214e-03
1.74342566e-02	-2.75167045e-02	1.93877308e-03
1.80415546e-02	-1.64195803e-02	1.79529297e-02
2.68480777e-02	-2.92706960e-02	1.70870840e-02
1.75089992e-02	7.25020404e-03	1.62432823e-02
-1.54498172e-02	-3.43111798e-02	1.80944737e-02
2.49504044e-02	-2.74477125e-02	4.60296408e-03
1.57504784e-02	-3.72810331e-02	5.06440963e-03
6.08316580e-03	-2.95342005e-02	7.03030030e-03
3.56327004e-02	-9.60089576e-03	8.88369081e-03
3.25840880e-02	-9.36834240e-03	1.96418888e-03
3.36049275e-02	-1.48636361e-02	5.63019771e-03
-1.35533321e-02	-3.57702829e-02	5.18954960e-03
2.55975859e-02	-2.03674225e-02	1.80477730e-02
1.60285077e-03	-3.38883829e-02	1.27141440e-02
2.07857687e-02	-8.00429972e-03	1.29470836e-02
3.07674295e-02	1.87687168e-02	5.81513848e-03
-9.77994015e-04	-3.01284062e-02	4.52181002e-03
1.52131151e-02	-3.46202814e-02	2.46948088e-03
3.08082976e-02	3.93681271e-03	1.46409318e-02
3.30964008e-02	-1.45776144e-02	1.74394137e-02
2.94123702e-02	1.84621596e-02	1.66224760e-02
2.19097155e-02	-2.73757865e-02	2.16547909e-03
2.35110629e-02	-2.75503841e-02	1.45588965e-02
3.73048618e-02	-1.40244764e-02	6.12956326e-03
1.57610118e-02	-2.96834219e-02	8.35147353e-03
2.51870527e-02	-3.09543737e-02	2.60014296e-03
3.95240288e-02	6.82900758e-03	1.04279172e-02
2.16150977e-02	-3.35363812e-02	2.09135901e-03
2.51457121e-02	-6.25980286e-03	8.68454294e-03
2.41353028e-02	5.62119079e-03	1.82238824e-02
1.97662171e-02	-2.75962064e-02	1.11199004e-02
2.83509435e-02	2.06861489e-03	1.81877504e-02
1.21474679e-02	-3.82724986e-02	1.14971013e-02
3.17767693e-02	-2.41805684e-02	1.49662128e-02
1.53472693e-02	-2.17051604e-02	1.25951021e-02
2.21560063e-02	-1.79744572e-02	1.02908634e-02
1.18454662e-02	-3.86196661e-02	5.96312831e-03
1.40826564e-02	-1.03346419e-02	4.11086481e-03
-1.32046083e-02	-2.88490602e-02	8.49081495e-03
1.90328027e-02	-2.35921236e-02	2.13551522e-03
-5.67190718e-03	-3.56916226e-02	6.38928948e-03
1.32895094e-02	-3.79328022e-02	2.37073021e-03
3.39536266e-02	1.90435271e-02	1.46159346e-02
3.25183111e-02	-8.17121216e-03	1.80377977e-02
2.95477764e-02	8.54091580e-03	2.48766218e-03
9.51003126e-03	-2.38481722e-02	1.13460520e-02
1.66027748e-02	-2.03576877e-02	6.71000774e-03
2.11087959e-02	-2.93315690e-02	4.93987946e-03
3.98898214e-02	-3.26259923e-03	1.79309692e-02
3.23270430e-02	-2.26695743e-04	8.15735714e-03
1.57834394e-02	-3.71336491e-02	9.21396410e-03
3.48223394e-02	1.62570705e-02	2.55769642e-03
1.93670473e-02	-2.20085807e-02	1.00953702e-02
6.45415195e-03	-3.20089853e-02	1.46142367e-02
1.18265834e-02	-2.81435555e-02	5.87059047e-03
9.70538956e-03	-3.55493030e-02	1.28300113e-02
-3.10999804e-03	-4.01572279e-02	2.08651249e-03
-8.07362857e-03	-2.87391516e-02	1.58023094e-02
8.02733125e-03	-3.94030563e-02	1.80684139e-02
2.73828374e-02	-6.91495367e-03	5.36095626e-03
4.01337007e-02	-1.98902639e-03	1.41023639e-02
2.30392434e-02	-6.63825929e-03	5.39955316e-03
1.15209271e-02	-2.25087704e-02	1.81749277e-02
3.96089863e-02	8.63930350e-04	7.25178395e-03
1.80913460e-02	-6.93559290e-03	1.54212415e-02
9.08685478e-03	-3.94389359e-02	9.57125844e-03
2.11959069e-02	-2.96713586e-02	1.34124639e-02
-1.22911271e-03	-3.90708157e-02	1.31643569e-02
2.05755486e-02	-2.12045414e-02	1.75418389e-02
8.35601948e-03	-3.82410726e-02	1.84519108e-03
3.56187202e-02	6.61212407e-03	1.76322109e-02
3.26514350e-02	1.15212472e-02	1.45051764e-02
3.94164131e-02	8.17459333e-03	1.46639398e-02
3.91644634e-02	-6.56944941e-03	7.61134168e-03
2.28933482e-02	-1.03774346e-02	6.24867894e-03
2.94561776e-02	-7.72140963e-03	1.81321170e-02
2.95356727e-02	1.01164642e-02	1.09837311e-02
1.80733275e-02	-1.76807598e-02	9.30076206e-03
1.42056984e-02	-2.36459103e-02	1.09385120e-02
3.71002357e-02	1.54183128e-02	1.81307958e-02
3.27367087e-02	-2.26609967e-02	1.13387887e-02
2.56866988e-02	-2.52858449e-02	7.44225927e-03
3.16911798e-02	-7.04732820e-03	1.02331928e-02
-1.39720419e-02	-3.48537152e-02	1.33978780e-02
3.96757760e-02	3.10247901e-03	1.48549630e-02
2.24463903e-02	-2.35621464e-02	8.24790499e-03
2.26681728e-02	-1.59838417e-02	1.41630352e-02
3.54667791e-02	-1.82732672e-02	1.75071026e-02
-9.54473447e-04	-2.67332849e-02	1.35791306e-02
2.87305987e-02	-1.66886934e-02	1.49135623e-02
2.66253036e-02	1.76118078e-02	1.30180389e-02
3.50633003e-02	4.70866874e-03	2.13699502e-03
3.43392259e-02	1.68939488e-02	6.53564529e-03
2.96069140e-02	-4.96436753e-04	1.52675513e-02
-8.11319067e-05	-3.06887142e-02	1.47806936e-02
2.16890258e-02	1.25107155e-02	5.25246492e-03
[...]
POINT_DATA 469
SCALARS Radius double 1
LOOKUP_TABLE default
2.00000000e-03
2.00000000e-03
2.00000000e-03
2.00000000e-03
2.00000000e-03
2.00000000e-03
2.00000000e-03
2.00000000e-03
2.00000000e-03
2.00000000e-03
2.00000000e-03
2.00000000e-03
2.00000000e-03
2.00000000e-03
2.00000000e-03
2.00000000e-03
2.00000000e-03
2.00000000e-03
2.00000000e-03
2.00000000e-03
2.00000000e-03
2.00000000e-03
2.00000000e-03
2.00000000e-03
2.00000000e-03
2.00000000e-03
2.00000000e-03
2.00000000e-03
2.00000000e-03
2.00000000e-03
2.00000000e-03
2.00000000e-03
2.00000000e-03
2.00000000e-03
2.00000000e-03
2.00000000e-03
2.00000000e-03
2.00000000e-03
2.00000000e-03
2.00000000e-03
2.00000000e-03
2.00000000e-03
2.00000000e-03
2.00000000e-03
2.00000000e-03
2.00000000e-03
2.00000000e-03
2.00000000e-03
2.00000000e-03
2.00000000e-03
2.00000000e-03
2.00000000e-03
2.00000000e-03
2.00000000e-03
2.00000000e-03
2.00000000e-03
2.00000000e-03
2.00000000e-03
2.00000000e-03
2.00000000e-03
2.00000000e-03
2.00000000e-03
2.00000000e-03
2.00000000e-03
2.00000000e-03
2.00000000e-03
2.00000000e-03
2.00000000e-03
2.00000000e-03
2.00000000e-03
2.00000000e-03
2.00000000e-03
2.00000000e-03
2.00000000e-03
2.00000000e-03
2.00000000e-03
2.00000000e-03
2.00000000e-03
2.00000000e-03
2.00000000e-03
2.00000000e-03
2.00000000e-03
2.00000000e-03
2.00000000e-03
2.00000000e-03
2.00000000e-03
2.00000000e-03
2.00000000e-03
2.00000000e-03
2.00000000e-03
2.00000000e-03
2.00000000e-03
2.00000000e-03
2.00000000e-03
2.00000000e-03
2.00000000e-03
2.00000000e-03
2.00000000e-03
2.00000000e-03
2.00000000e-03
2.00000000e-03
2.00000000e-03
2.00000000e-03
2.00000000e-03
2.00000000e-03
2.00000000e-03
2.00000000e-03
2.00000000e-03
2.00000000e-03
2.00000000e-03
2.00000000e-03
2.00000000e-03
2.00000000e-03
2.00000000e-03
2.00000000e-03
2.00000000e-03
2.00000000e-03
2.00000000e-03
2.00000000e-03
2.00000000e-03
2.00000000e-03
2.00000000e-03
2.00000000e-03
2.00000000e-03
2.00000000e-03
2.00000000e-03
2.00000000e-03
2.00000000e-03
2.00000000e-03
2.00000000e-03
2.00000000e-03
2.00000000e-03
2.00000000e-03
2.00000000e-03
2.00000000e-03
2.00000000e-03
2.00000000e-03
2.00000000e-03
2.00000000e-03
2.00000000e-03
2.00000000e-03
2.00000000e-03
2.00000000e-03
2.00000000e-03
2.00000000e-03
2.00000000e-03
2.00000000e-03
2.00000000e-03
2.00000000e-03
2.00000000e-03
2.00000000e-03
2.00000000e-03
2.00000000e-03
2.00000000e-03
2.00000000e-03
2.00000000e-03
2.00000000e-03
2.00000000e-03
2.00000000e-03
2.00000000e-03
2.00000000e-03
2.00000000e-03
2.00000000e-03
2.00000000e-03
2.00000000e-03
2.00000000e-03
2.00000000e-03
2.00000000e-03
2.00000000e-03
2.00000000e-03
2.00000000e-03
2.00000000e-03
2.00000000e-03
2.00000000e-03
2.00000000e-03
2.00000000e-03
2.00000000e-03
2.00000000e-03
2.00000000e-03
2.00000000e-03
2.00000000e-03
2.00000000e-03
2.00000000e-03
2.00000000e-03
2.00000000e-03
2.00000000e-03
2.00000000e-03
2.00000000e-03
2.00000000e-03
2.00000000e-03
2.00000000e-03
2.00000000e-03
2.00000000e-03
2.00000000e-03
2.00000000e-03
2.00000000e-03
2.00000000e-03
2.00000000e-03
2.00000000e-03
2.00000000e-03
2.00000000e-03
2.00000000e-03
2.00000000e-03
2.00000000e-03
2.00000000e-03
2.00000000e-03
2.00000000e-03
2.00000000e-03
2.00000000e-03
2.00000000e-03
2.00000000e-03
2.00000000e-03
2.00000000e-03
2.00000000e-03
2.00000000e-03
2.00000000e-03
2.00000000e-03
2.00000000e-03
2.00000000e-03
2.00000000e-03
2.00000000e-03
2.00000000e-03
2.00000000e-03
2.00000000e-03
2.00000000e-03
2.00000000e-03
2.00000000e-03
2.00000000e-03
2.00000000e-03
2.00000000e-03
2.00000000e-03
2.00000000e-03
2.00000000e-03
2.00000000e-03
2.00000000e-03
2.00000000e-03
2.00000000e-03
2.00000000e-03
2.00000000e-03
2.00000000e-03
2.00000000e-03
2.00000000e-03
2.00000000e-03
2.00000000e-03
2.00000000e-03
2.00000000e-03
2.00000000e-03
2.00000000e-03
2.00000000e-03
2.00000000e-03
2.00000000e-03
2.00000000e-03
2.00000000e-03
2.00000000e-03
2.00000000e-03
2.00000000e-03
2.00000000e-03
2.00000000e-03
2.00000000e-03
2.00000000e-03
2.00000000e-03
2.00000000e-03
2.00000000e-03
2.00000000e-03
2.00000000e-03
2.00000000e-03
2.00000000e-03
2.00000000e-03
2.00000000e-03
2.00000000e-03
2.00000000e-03
2.00000000e-03
2.00000000e-03
2.00000000e-03
2.00000000e-03
2.00000000e-03
2.00000000e-03
2.00000000e-03
2.00000000e-03
2.00000000e-03
2.00000000e-03
2.00000000e-03
2.00000000e-03
2.00000000e-03
2.00000000e-03
2.00000000e-03
2.00000000e-03
2.00000000e-03
2.00000000e-03
2.00000000e-03
2.00000000e-03
2.00000000e-03
2.00000000e-03
2.00000000e-03
2.00000000e-03
2.00000000e-03
2.00000000e-03
2.00000000e-03
2.00000000e-03
2.00000000e-03
2.00000000e-03
2.00000000e-03
2.00000000e-03
2.00000000e-03
2.00000000e-03
2.00000000e-03
2.00000000e-03
2.00000000e-03
2.00000000e-03
2.00000000e-03
2.00000000e-03
2.00000000e-03
2.00000000e-03
2.00000000e-03
2.00000000e-03
2.00000000e-03
2.00000000e-03
2.00000000e-03
2.00000000e-03
2.00000000e-03
2.00000000e-03
2.00000000e-03
2.00000000e-03
2.00000000e-03
2.00000000e-03
2.00000000e-03
2.00000000e-03
2.00000000e-03
2.00000000e-03
2.00000000e-03
2.00000000e-03
2.00000000e-03
2.00000000e-03
2.00000000e-03
2.00000000e-03
2.00000000e-03
2.00000000e-03
2.00000000e-03
2.00000000e-03
2.00000000e-03
2.00000000e-03
2.00000000e-03
2.00000000e-03
2.00000000e-03
2.00000000e-03
2.00000000e-03
2.00000000e-03
2.00000000e-03
2.00000000e-03
2.00000000e-03
2.00000000e-03
2.00000000e-03
2.00000000e-03
2.00000000e-03
2.00000000e-03
2.00000000e-03
2.00000000e-03
2.00000000e-03
2.00000000e-03
2.00000000e-03
2.00000000e-03
2.00000000e-03
2.00000000e-03
2.00000000e-03
2.00000000e-03
2.00000000e-03
2.00000000e-03
2.00000000e-03
2.00000000e-03
2.00000000e-03
2.00000000e-03
2.00000000e-03
2.00000000e-03
2.00000000e-03
2.00000000e-03
2.00000000e-03
2.00000000e-03
2.00000000e-03
2.00000000e-03
2.00000000e-03
2.00000000e-03
2.00000000e-03
2.00000000e-03
2.00000000e-03
2.00000000e-03
2.00000000e-03
2.00000000e-03
2.00000000e-03
2.00000000e-03
2.00000000e-03
2.00000000e-03
2.00000000e-03
2.00000000e-03
2.00000000e-03
2.00000000e-03
2.00000000e-03
2.00000000e-03
2.00000000e-03
2.00000000e-03
2.00000000e-03
2.00000000e-03
2.00000000e-03
2.00000000e-03
2.00000000e-03
2.00000000e-03
2.00000000e-03
2.00000000e-03
2.00000000e-03
2.00000000e-03
2.00000000e-03
2.00000000e-03
2.00000000e-03
2.00000000e-03
2.00000000e-03
2.00000000e-03
2.00000000e-03
2.00000000e-03
2.00000000e-03
2.00000000e-03
2.00000000e-03
2.00000000e-03
2.00000000e-03
2.00000000e-03
2.00000000e-03
2.00000000e-03
2.00000000e-03
2.00000000e-03
2.00000000e-03
2.00000000e-03
2.00000000e-03
2.00000000e-03
2.00000000e-03
2.00000000e-03
2.00000000e-03
2.00000000e-03
2.00000000e-03
2.00000000e-03
2.00000000e-03
2.00000000e-03
2.00000000e-03
2.00000000e-03
2.00000000e-03
2.00000000e-03
2.00000000e-03
2.00000000e-03
2.00000000e-03
2.00000000e-03
2.00000000e-03
2.00000000e-03
2.00000000e-03
2.00000000e-03
2.00000000e-03
2.00000000e-03
2.00000000e-03
2.00000000e-03
2.00000000e-03
2.00000000e-03
2.00000000e-03
2.00000000e-03
2.00000000e-03
2.00000000e-03
2.00000000e-03
2.00000000e-03
2.00000000e-03
2.00000000e-03
2.00000000e-03
2.00000000e-03
2.00000000e-03
2.00000000e-03
