# vtk DataFile Version 2.0
Particle data
ASCII
DATASET POLYDATA
POINTS 469 double
3.74313240e-02	1.09807941e-03	1.47905698e-02
2.84316155e-02	1.49255378e-03	1.33858505e-02
3.18859748e-02	-2.36276498e-02	1.48424604e-02
7.72331761e-03	-1.79329674e-02	1.07194374e-02
2.77245856e-02	6.79608327e-03	3.18383773e-03
3.39807017e-02	-7.68559640e-03	2.37606572e-03
3.70212748e-02	-1.17864191e-02	1.77204172e-02
7.73613021e-03	-2.63528425e-02	1.73020526e-02
2.38022320e-02	-3.13053552e-02	1.68107355e-02
-8.07568524e-03	-3.78051539e-02	1.52686591e-02
3.59150623e-02	3.99579203e-03	7.65475334e-03
3.07526870e-02	-2.73526100e-03	1.70663783e-02
8.83207673e-03	-3.85630338e-02	8.16083142e-03
2.76958646e-02	1.07426209e-03	5.39459676e-03
3.31399733e-02	9.68771349e-03	1.31240790e-02
-3.54547728e-03	-2.81860690e-02	1.12811394e-02
2.01870780e-02	-9.60566318e-03	8.47382651e-03
3.16861830e-02	-7.22249522e-03	1.89427150e-03
1.90084903e-02	-1.42905120e-02	1.47407842e-02
3.82053618e-02	-3.90587826e-03	4.92290728e-03
3.43017507e-02	8.62961197e-03	1.91748723e-03
2.66316269e-02	-2.46201481e-02	1.80289966e-02
-1.41603829e-03	-1.04221810e-02	2.34099029e-03
3.12997732e-02	-1.93228773e-02	5.31099852e-03
3.22455966e-02	-1.49075088e-02	5.26986503e-03
-1.34922350e-02	-3.82887733e-02	1.39599276e-02
3.44615567e-02	1.18336390e-02	1.61671384e-02
3.24440257e-02	-1.52498395e-02	1.75235545e-02
3.13580299e-03	-1.54921476e-02	6.25291834e-03
9.07608944e-03	-3.37149407e-02	1.85278179e-02
3.06123788e-02	-4.80814739e-04	8.67096919e-03
2.31501446e-02	-3.08103618e-02	8.93235898e-03
2.94691997e-02	-7.12250007e-03	8.04454222e-03
2.26671145e-02	-2.02115698e-02	1.49771628e-02
6.49026543e-03	-3.71164327e-02	8.50732870e-03
2.57954919e-02	-1.20021748e-02	1.50941229e-02
3.99403504e-02	-2.32826362e-03	1.03867345e-02
2.62814845e-02	1.59480894e-02	8.41904937e-03
3.23372060e-02	-7.91960493e-03	1.38613905e-02
3.24296584e-02	-1.05474352e-03	5.13353301e-03
1.53164475e-02	-3.89333176e-03	1.45135701e-02
3.07092035e-02	-1.68742584e-02	1.57434601e-02
2.59052864e-03	-3.52281900e-02	2.38508115e-03
3.68839524e-02	4.27633356e-03	1.72906333e-02
1.87825290e-02	-2.20589316e-02	1.38677654e-02
3.44847475e-02	8.50266241e-03	1.15010383e-02
2.36475552e-02	-4.28910358e-03	1.57096505e-02
2.86680069e-02	1.03798380e-02	1.55943985e-02
1.97764140e-02	-1.07893654e-02	1.38579390e-02
3.91771390e-02	2.87258005e-03	1.74504896e-02
4.92815249e-03	-2.33875143e-02	2.28491762e-03
1.88300502e-02	-3.89506397e-03	1.35077075e-02
3.05543775e-02	1.66064927e-02	1.25864730e-02
1.12959842e-02	-2.13949060e-02	1.65156969e-03
4.90703996e-03	-2.90253829e-02	5.88744204e-03
-7.35026511e-03	-2.46426599e-02	1.72681912e-02
-1.78003053e-03	-3.17523956e-02	6.19739240e-03
2.73094004e-02	9.84582775e-03	1.83149307e-02
1.35469540e-02	-3.01008994e-02	1.43910734e-02
9.79873879e-03	-3.27541463e-02	1.42231553e-02
1.38508667e-02	-3.48684010e-02	1.16071094e-02
2.44164617e-02	-1.98966756e-02	1.25665147e-02
1.45970361e-02	-1.71112292e-02	1.78232729e-02
-2.95167967e-03	-2.18450326e-02	1.17851339e-02
2.88185147e-02	-1.74343395e-02	3.89579633e-03
3.13838542e-02	9.71589663e-03	7.04292673e-03
-1.34366784e-02	-3.91531709e-02	5.80590025e-03
3.01756421e-02	-9.81878602e-03	1.64427902e-02
4.73995621e-03	-3.28249908e-02	6.82011090e-03
1.34000755e-02	-3.40854419e-02	2.77481248e-03
1.34820951e-02	-6.64662869e-03	1.02491206e-02
2.20887915e-02	-3.07660741e-02	5.89420326e-03
4.10589057e-02	3.91846356e-03	1.75299085e-02
3.63583864e-02	-2.12590600e-03	1.40025472e-02
3.03342716e-02	-2.45999635e-02	3.25487134e-03
1.07633275e-02	-5.20209150e-03	1.83075903e-02
1.29004358e-02	-3.28871555e-02	5.89380506e-03
3.84719476e-02	-1.03318004e-02	4.80807194e-03
9.60414747e-03	-3.99391477e-02	1.89108492e-02
-2.01946147e-03	-2.54476744e-02	1.53605073e-02
2.79665748e-02	1.09618690e-02	9.01493822e-03
2.17369548e-02	-5.44523737e-03	1.00034071e-02
1.68470220e-02	-2.38162300e-02	7.43121757e-03
2.07340643e-02	-2.18146229e-02	1.78785993e-02
1.80778712e-02	-3.07461767e-02	3.62712062e-03
3.82719826e-02	7.07087797e-03	1.87912348e-03
2.32399330e-02	2.13110919e-03	1.75093307e-02
-5.29912786e-03	-1.90589113e-02	9.27781990e-03
2.45609169e-02	-2.14732102e-02	6.31963847e-03
9.04225181e-03	-2.75181870e-02	6.07671038e-03
3.57644393e-02	1.08926238e-02	1.29986177e-02
3.53568834e-02	6.29512812e-03	3.43561846e-03
2.92576177e-02	-2.77384160e-02	9.56321936e-03
3.48394851e-02	1.24376958e-02	3.49266643e-03
2.99844094e-02	-1.09617389e-02	1.08815223e-02
2.03612680e-02	-3.42747461e-02	1.73144117e-02
5.14796161e-03	-6.81901851e-03	1.04486362e-02
-5.16818064e-04	-3.68607931e-02	1.36607743e-02
2.58914760e-02	-2.04376189e-02	1.03617961e-02
3.18624512e-02	-7.04972050e-03	1.04244636e-02
5.14864872e-03	-3.41701460e-02	1.18510964e-02
1.34471502e-02	-1.71432773e-02	1.87794936e-02
1.03816556e-02	-4.10809909e-03	1.57045776e-02
2.13997988e-02	-2.79668078e-02	1.54196650e-02
9.78750699e-03	-3.57837175e-02	1.59177438e-02
3.94270801e-02	9.84215701e-03	1.22356197e-02
2.29622224e-02	-1.66848920e-02	8.44519585e-03
1.17965710e-02	-3.15461946e-02	1.03679875e-02
4.54117986e-03	-2.88725887e-02	2.14140432e-03
3.19302976e-02	2.24805907e-03	9.46095730e-03
-4.79892184e-03	-3.44346052e-02	4.79722746e-03
3.15266759e-02	1.27268859e-02	1.82906259e-02
2.12195380e-02	1.35751250e-02	1.85005486e-02
1.23098645e-02	-2.02395488e-02	6.93966640e-03
1.27190904e-02	-3.72695781e-02	1.81156813e-02
4.39195727e-03	-3.70543698e-02	1.69087383e-03
3.57231626e-02	9.38615166e-03	1.50777790e-02
-8.75691284e-03	-2.96141659e-02	3.87376198e-03
2.18204534e-02	-1.95182589e-03	6.60815701e-03
3.73994840e-02	-1.46004034e-02	2.24171362e-03
3.13175714e-02	1.55613039e-02	2.38811518e-03
2.31497762e-02	-2.35448559e-02	1.14450296e-02
3.83752746e-02	-5.99733587e-03	1.70001777e-02
9.12052854e-03	-3.60323336e-02	8.05112846e-04
2.82309325e-02	-2.77270685e-02	1.79657389e-02
3.96693959e-02	5.44028894e-03	1.39712058e-02
3.64187800e-02	-1.10874789e-02	5.13934717e-03
3.49812250e-02	-8.71341525e-03	1.27689053e-02
-7.89310107e-03	-2.73273723e-02	1.39405216e-02
2.05646782e-02	1.05160685e-02	2.21344259e-03
-1.61725986e-03	-2.02902625e-02	1.86059351e-03
1.89036745e-02	-3.29116903e-02	9.93731186e-03
3.01266240e-02	8.48958199e-03	1.82461992e-02
3.57542017e-02	-1.42060999e-02	7.71451949e-03
2.55778824e-02	-8.41542098e-03	6.24506726e-03
7.45498375e-03	-4.11483409e-02	1.28409214e-02
2.79717998e-02	-2.97316628e-03	7.36241707e-03
3.81619715e-02	-1.10117772e-02	3.57306305e-03
1.85975448e-02	-3.37609113e-02	1.20581665e-02
2.23301513e-02	-1.13561699e-02	1.83102413e-02
5.18392784e-03	-3.80732928e-02	1.84522416e-02
3.92713461e-02	3.90886073e-03	1.01981837e-02
2.06797772e-02	-4.87688474e-03	1.40921253e-02
3.37791902e-02	1.79818473e-02	2.59590218e-03
3.49309430e-02	-3.93412207e-03	6.76563766e-03
3.84404193e-02	-1.50106838e-03	2.00103157e-03
-2.15370671e-03	-1.59123895e-02	2.93919273e-03
3.18691335e-02	-2.84155171e-03	1.87438372e-03
2.32368567e-02	-1.03400912e-02	1.04505737e-02
-7.67594751e-04	-4.04999729e-02	1.83784292e-02
2.45787906e-02	1.24533639e-02	1.76826173e-02
2.05693861e-02	-2.20224662e-02	8.62813785e-03
3.31170983e-02	-8.76035183e-03	1.01093753e-02
2.57527905e-02	6.50523530e-03	1.40649723e-02
8.55243269e-03	-1.98247332e-02	3.48440616e-03
-1.24721708e-02	-2.93323681e-02	1.42932291e-02
3.52900394e-02	-1.21372549e-02	1.80878001e-03
1.70158613e-02	-4.79129959e-03	4.37583522e-03
1.32261357e-02	-3.96744711e-02	1.84440836e-02
2.92709646e-02	-2.63714454e-03	3.83936383e-03
3.36927493e-02	-1.52083983e-02	8.80515671e-03
3.91201084e-02	-5.48790177e-03	2.71929567e-03
1.42271605e-02	-2.96677850e-02	6.97941756e-03
1.49195248e-02	4.50205978e-03	1.91042148e-02
1.74039937e-02	-2.07500619e-02	5.66991470e-03
3.08410911e-02	-2.27708609e-03	1.30042149e-02
7.30820918e-03	-2.69206607e-02	8.33113888e-03
3.86881762e-02	-7.74979437e-03	9.50599385e-03
-3.76953722e-04	-2.33327628e-02	1.75529375e-02
-4.19670112e-03	-2.34687838e-02	7.50626873e-03
3.43100907e-02	-1.85515999e-02	1.71228931e-02
-2.30864506e-03	-3.95729254e-02	3.30913276e-03
2.50484945e-02	1.73847540e-02	1.84752361e-02
2.99966245e-02	1.85212728e-03	1.70891784e-02
3.90253070e-02	-2.39541238e-03	1.80826245e-02
3.21625578e-02	-2.51609389e-02	9.33008309e-03
2.62180820e-02	-1.53396736e-02	1.63438600e-03
1.96856120e-02	-3.18531279e-02	9.46664495e-03
2.82550057e-02	-2.40755538e-02	1.55877677e-02
2.49743241e-02	-2.81033748e-02	4.92292931e-03
5.39177665e-03	-1.05057134e-02	5.72221212e-03
2.75152388e-02	-1.55422533e-02	6.73341072e-03
3.91911879e-02	1.08805376e-02	1.81892252e-02
2.21068798e-02	1.48574136e-02	1.18367316e-02
2.65715983e-02	-1.58318737e-02	1.79342060e-02
3.42830298e-02	-1.25628788e-02	1.04705539e-02
1.94276688e-02	-9.43693288e-05	1.89400254e-03
3.22195585e-02	-1.47259317e-02	1.14096547e-02
3.47123120e-02	-1.98322242e-03	1.80631672e-02
3.31879772e-02	-1.08272837e-02	2.82955994e-03
6.63558137e-03	-2.79987671e-02	1.01438040e-02
1.56073694e-02	-1.82950959e-02	1.79514109e-02
7.62730817e-03	-4.28941230e-03	1.36207827e-02
3.66175766e-02	1.72678990e-02	1.79376987e-02
2.38134621e-02	9.67278826e-03	3.06720976e-03
1.03608029e-03	-2.63976426e-02	1.15201180e-02
2.47601331e-02	-2.29696630e-02	1.39833022e-02
2.14353395e-02	-1.84675343e-02	9.53806652e-03
1.71811914e-02	-6.90827864e-03	8.48965340e-03
-4.24428485e-03	-3.58220941e-02	1.40397829e-02
3.06361501e-02	9.99561361e-03	1.46935609e-02
2.16936737e-02	8.13468114e-03	1.40433680e-02
7.04443796e-03	-1.15048769e-02	1.83117165e-02
2.53906093e-02	-2.52970698e-02	1.35745875e-02
7.27702947e-04	-3.58168067e-02	1.77594416e-02
1.77903641e-02	2.75597917e-03	5.16353051e-03
5.66948463e-03	-1.18980645e-02	1.71370870e-02
2.79446430e-02	1.08651359e-02	4.53267645e-03
2.87860305e-02	-2.89088982e-03	1.50036365e-02
1.38413543e-02	-9.29568968e-03	1.39245989e-02
6.91537763e-03	-3.80147232e-02	1.49720507e-02
8.15390793e-03	-2.63771103e-02	2.09841768e-03
2.49167317e-03	-4.16070125e-02	1.53656955e-02
2.00431806e-02	-2.70023895e-02	1.67415477e-02
1.95707633e-02	-1.23036289e-02	1.82998306e-02
2.54681922e-02	-7.58800253e-03	2.81049688e-03
[...]
POINT_DATA 469
SCALARS Radius double 1
LOOKUP_TABLE default
2.00000000e-03
2.00000000e-03
2.00000000e-03
2.00000000e-03
2.00000000e-03
2.00000000e-03
2.00000000e-03
2.00000000e-03
2.00000000e-03
2.00000000e-03
2.00000000e-03
2.00000000e-03
2.00000000e-03
2.00000000e-03
2.00000000e-03
2.00000000e-03
2.00000000e-03
2.00000000e-03
2.00000000e-03
2.00000000e-03
2.00000000e-03
2.00000000e-03
2.00000000e-03
2.00000000e-03
2.00000000e-03
2.00000000e-03
2.00000000e-03
2.00000000e-03
2.00000000e-03
2.00000000e-03
2.00000000e-03
2.00000000e-03
2.00000000e-03
2.00000000e-03
2.00000000e-03
2.00000000e-03
2.00000000e-03
2.00000000e-03
2.00000000e-03
2.00000000e-03
2.00000000e-03
2.00000000e-03
2.00000000e-03
2.00000000e-03
2.00000000e-03
2.00000000e-03
2.00000000e-03
2.00000000e-03
2.00000000e-03
2.00000000e-03
2.00000000e-03
2.00000000e-03
2.00000000e-03
2.00000000e-03
2.00000000e-03
2.00000000e-03
2.00000000e-03
2.00000000e-03
2.00000000e-03
2.00000000e-03
2.00000000e-03
2.00000000e-03
2.00000000e-03
2.00000000e-03
2.00000000e-03
2.00000000e-03
2.00000000e-03
2.00000000e-03
2.00000000e-03
2.00000000e-03
2.00000000e-03
2.00000000e-03
2.00000000e-03
2.00000000e-03
2.00000000e-03
2.00000000e-03
2.00000000e-03
2.00000000e-03
2.00000000e-03
2.00000000e-03
2.00000000e-03
2.00000000e-03
2.00000000e-03
2.00000000e-03
2.00000000e-03
2.00000000e-03
2.00000000e-03
2.00000000e-03
2.00000000e-03
2.00000000e-03
2.00000000e-03
2.00000000e-03
2.00000000e-03
2.00000000e-03
2.00000000e-03
2.00000000e-03
2.00000000e-03
2.00000000e-03
2.00000000e-03
2.00000000e-03
2.00000000e-03
2.00000000e-03
2.00000000e-03
2.00000000e-03
2.00000000e-03
2.00000000e-03
2.00000000e-03
2.00000000e-03
2.00000000e-03
2.00000000e-03
2.00000000e-03
2.00000000e-03
2.00000000e-03
2.00000000e-03
2.00000000e-03
2.00000000e-03
2.00000000e-03
2.00000000e-03
2.00000000e-03
2.00000000e-03
2.00000000e-03
2.00000000e-03
2.00000000e-03
2.00000000e-03
2.00000000e-03
2.00000000e-03
2.00000000e-03
2.00000000e-03
2.00000000e-03
2.00000000e-03
2.00000000e-03
2.00000000e-03
2.00000000e-03
2.00000000e-03
2.00000000e-03
2.00000000e-03
2.00000000e-03
2.00000000e-03
2.00000000e-03
2.00000000e-03
2.00000000e-03
2.00000000e-03
2.00000000e-03
2.00000000e-03
2.00000000e-03
2.00000000e-03
2.00000000e-03
2.00000000e-03
2.00000000e-03
2.00000000e-03
2.00000000e-03
2.00000000e-03
2.00000000e-03
2.00000000e-03
2.00000000e-03
2.00000000e-03
2.00000000e-03
2.00000000e-03
2.00000000e-03
2.00000000e-03
2.00000000e-03
2.00000000e-03
2.00000000e-03
2.00000000e-03
2.00000000e-03
2.00000000e-03
2.00000000e-03
2.00000000e-03
2.00000000e-03
2.00000000e-03
2.00000000e-03
2.00000000e-03
2.00000000e-03
2.00000000e-03
2.00000000e-03
2.00000000e-03
2.00000000e-03
2.00000000e-03
2.00000000e-03
2.00000000e-03
2.00000000e-03
2.00000000e-03
2.00000000e-03
2.00000000e-03
2.00000000e-03
2.00000000e-03
2.00000000e-03
2.00000000e-03
2.00000000e-03
2.00000000e-03
2.00000000e-03
2.00000000e-03
2.00000000e-03
2.00000000e-03
2.00000000e-03
2.00000000e-03
2.00000000e-03
2.00000000e-03
2.00000000e-03
2.00000000e-03
2.00000000e-03
2.00000000e-03
2.00000000e-03
2.00000000e-03
2.00000000e-03
2.00000000e-03
2.00000000e-03
2.00000000e-03
2.00000000e-03
2.00000000e-03
2.00000000e-03
2.00000000e-03
2.00000000e-03
2.00000000e-03
2.00000000e-03
2.00000000e-03
2.00000000e-03
2.00000000e-03
2.00000000e-03
2.00000000e-03
2.00000000e-03
2.00000000e-03
2.00000000e-03
2.00000000e-03
2.00000000e-03
2.00000000e-03
2.00000000e-03
2.00000000e-03
2.00000000e-03
2.00000000e-03
2.00000000e-03
2.00000000e-03
2.00000000e-03
2.00000000e-03
2.00000000e-03
2.00000000e-03
2.00000000e-03
2.00000000e-03
2.00000000e-03
2.00000000e-03
2.00000000e-03
2.00000000e-03
2.00000000e-03
2.00000000e-03
2.00000000e-03
2.00000000e-03
2.00000000e-03
2.00000000e-03
2.00000000e-03
2.00000000e-03
2.00000000e-03
2.00000000e-03
2.00000000e-03
2.00000000e-03
2.00000000e-03
2.00000000e-03
2.00000000e-03
2.00000000e-03
2.00000000e-03
2.00000000e-03
2.00000000e-03
2.00000000e-03
2.00000000e-03
2.00000000e-03
2.00000000e-03
2.00000000e-03
2.00000000e-03
2.00000000e-03
2.00000000e-03
2.00000000e-03
2.00000000e-03
2.00000000e-03
2.00000000e-03
2.00000000e-03
2.00000000e-03
2.00000000e-03
2.00000000e-03
2.00000000e-03
2.00000000e-03
2.00000000e-03
2.00000000e-03
2.00000000e-03
2.00000000e-03
2.00000000e-03
2.00000000e-03
2.00000000e-03
2.00000000e-03
2.00000000e-03
2.00000000e-03
2.00000000e-03
2.00000000e-03
2.00000000e-03
2.00000000e-03
2.00000000e-03
2.00000000e-03
2.00000000e-03
2.00000000e-03
2.00000000e-03
2.00000000e-03
2.00000000e-03
2.00000000e-03
2.00000000e-03
2.00000000e-03
2.00000000e-03
2.00000000e-03
2.00000000e-03
2.00000000e-03
2.00000000e-03
2.00000000e-03
2.00000000e-03
2.00000000e-03
2.00000000e-03
2.00000000e-03
2.00000000e-03
2.00000000e-03
2.00000000e-03
2.00000000e-03
2.00000000e-03
2.00000000e-03
2.00000000e-03
2.00000000e-03
2.00000000e-03
2.00000000e-03
2.00000000e-03
2.00000000e-03
2.00000000e-03
2.00000000e-03
2.00000000e-03
2.00000000e-03
2.00000000e-03
2.00000000e-03
2.00000000e-03
2.00000000e-03
2.00000000e-03
2.00000000e-03
2.00000000e-03
2.00000000e-03
2.00000000e-03
2.00000000e-03
2.00000000e-03
2.00000000e-03
2.00000000e-03
2.00000000e-03
2.00000000e-03
2.00000000e-03
2.00000000e-03
2.00000000e-03
2.00000000e-03
2.00000000e-03
2.00000000e-03
2.00000000e-03
2.00000000e-03
2.00000000e-03
2.00000000e-03
2.00000000e-03
2.00000000e-03
2.00000000e-03
2.00000000e-03
2.00000000e-03
2.00000000e-03
2.00000000e-03
2.00000000e-03
2.00000000e-03
2.00000000e-03
2.00000000e-03
2.00000000e-03
2.00000000e-03
2.00000000e-03
2.00000000e-03
2.00000000e-03
2.00000000e-03
2.00000000e-03
2.00000000e-03
2.00000000e-03
2.00000000e-03
2.00000000e-03
2.00000000e-03
2.00000000e-03
2.00000000e-03
2.00000000e-03
2.00000000e-03
2.00000000e-03
2.00000000e-03
2.00000000e-03
2.00000000e-03
2.00000000e-03
2.00000000e-03
2.00000000e-03
2.00000000e-03
2.00000000e-03
2.00000000e-03
2.00000000e-03
2.00000000e-03
2.00000000e-03
2.00000000e-03
2.00000000e-03
2.00000000e-03
2.00000000e-03
2.00000000e-03
2.00000000e-03
2.00000000e-03
2.00000000e-03
2.00000000e-03
2.00000000e-03
2.00000000e-03
2.00000000e-03
2.00000000e-03
2.00000000e-03
2.00000000e-03
2.00000000e-03
2.00000000e-03
2.00000000e-03
2.00000000e-03
2.00000000e-03
2.00000000e-03
2.00000000e-03
2.00000000e-03
2.00000000e-03
2.00000000e-03
2.00000000e-03
2.00000000e-03
2.00000000e-03
2.00000000e-03
2.00000000e-03
2.00000000e-03
2.00000000e-03
2.00000000e-03
2.00000000e-03
2.00000000e-03
2.00000000e-03
2.00000000e-03
2.00000000e-03
2.00000000e-03
2.00000000e-03
2.00000000e-03
2.00000000e-03
2.00000000e-03
2.00000000e-03
2.00000000e-03
2.00000000e-03
2.00000000e-03
2.00000000e-03
2.00000000e-03
2.00000000e-03
2.00000000e-03
2.00000000e-03
2.00000000e-03
2.00000000e-03
2.00000000e-03
2.00000000e-03
2.00000000e-03
2.00000000e-03
2.00000000e-03
2.00000000e-03
2.00000000e-03
2.00000000e-03
2.00000000e-03
2.00000000e-03
2.00000000e-03
2.00000000e-03
2.00000000e-03
2.00000000e-03
2.00000000e-03
2.00000000e-03
2.00000000e-03
2.00000000e-03
2.00000000e-03
2.00000000e-03
2.00000000e-03
