# vtk DataFile Version 2.0
Particle data
ASCII
DATASET POLYDATA
POINTS 469 double
7.86787782e-03	-3.52604695e-02	8.54573199e-03
9.68256914e-03	-1.72934065e-02	8.04324132e-03
1.97268659e-02	7.04341725e-03	2.12731501e-03
3.96134546e-02	-5.35294799e-03	1.78429266e-02
1.69867249e-02	3.17682803e-04	4.04448828e-03
1.20110070e-02	-3.83997236e-02	2.50749349e-03
7.08368763e-03	-3.28283400e-02	1.15657380e-02
2.44996434e-02	-1.58060801e-02	1.76510748e-02
-2.95514788e-03	-2.66108591e-02	1.78023834e-02
3.62774365e-02	8.31207680e-03	1.12004460e-02
1.64181596e-02	-3.64499108e-02	1.78572095e-02
5.29292548e-03	-2.66127507e-02	1.71040651e-02
-5.18706135e-03	-2.75100149e-02	1.40529952e-02
2.80884492e-02	1.97801036e-02	1.93630037e-03
1.35290663e-02	-3.77984232e-02	1.46145974e-02
3.29404755e-02	-3.52349240e-03	1.21365916e-02
3.52980731e-02	-9.36125516e-03	1.44179902e-02
1.18773602e-03	-2.51797123e-02	2.62568620e-03
2.65320313e-02	-1.73673245e-02	1.40683484e-02
1.92096499e-02	-3.28848104e-02	1.11351732e-02
2.22558525e-02	-2.87009885e-02	2.03293850e-03
-1.84539849e-03	-1.95657171e-02	1.80725497e-02
3.66335793e-02	-2.22248176e-03	1.12647694e-02
1.94845654e-02	-1.50600493e-02	2.27932312e-03
2.72112063e-02	8.73646241e-03	2.10903725e-03
3.76767922e-02	5.14940630e-03	1.47490354e-02
3.04266321e-02	-2.59241016e-02	1.45162648e-02
-4.69356893e-03	-3.38335022e-02	1.34002368e-02
3.77018842e-02	-1.31412722e-02	1.66158932e-02
1.83217555e-02	-1.17909477e-02	1.42163677e-02
9.17706406e-04	-2.37610118e-02	1.28867588e-02
-4.10369440e-03	-4.08027620e-02	2.13736382e-03
1.25155602e-03	-3.02505313e-02	5.73568913e-03
2.23424136e-02	7.60474338e-04	1.79991830e-02
2.83446059e-02	2.24641887e-03	8.97664266e-03
2.63525960e-02	1.82122151e-02	1.10290623e-02
1.15479254e-02	-3.61130723e-02	5.93832268e-03
3.08333228e-02	-1.92747332e-02	9.45148380e-03
6.97746339e-03	-2.69010760e-02	1.09078550e-02
2.55607649e-02	1.37835038e-03	2.60853500e-03
2.86699959e-02	-2.22732427e-02	8.11986090e-03
-2.98556865e-03	-3.57570560e-02	1.50422406e-02
3.00731875e-02	1.27412159e-02	1.95647048e-03
1.09279695e-02	-2.51932148e-02	1.53909760e-02
3.60781286e-02	6.43596055e-04	1.37321323e-02
2.27922337e-02	-2.84745347e-02	1.11333645e-02
1.75362905e-02	-2.39903078e-02	1.35925866e-02
1.63315325e-02	-2.45171149e-02	5.44693731e-03
2.05072464e-02	-1.48661082e-02	1.07117312e-02
8.29663358e-03	-2.90816236e-02	1.80446619e-02
1.38466019e-02	-1.67440602e-02	2.28312484e-03
1.62146935e-02	-1.41332091e-02	3.42605150e-03
3.64991482e-02	-3.58504368e-03	1.63332102e-02
2.52087987e-02	-1.50346399e-02	8.28257089e-03
4.00358332e-02	1.54960980e-03	4.53699955e-03
3.66772041e-02	-1.57280405e-02	1.41577461e-02
3.60150369e-02	4.81151914e-03	9.09099350e-03
2.01374909e-02	-2.63878744e-02	1.49627825e-02
3.91069642e-02	9.50176819e-03	1.39611146e-02
3.55531252e-02	1.00596365e-02	1.71119318e-02
2.94655548e-02	2.15284591e-02	1.64163207e-02
2.53892021e-02	-6.26177729e-03	1.17352214e-02
1.40527291e-02	-2.35955368e-02	1.82133322e-02
3.46369264e-02	-1.15973274e-02	1.01054367e-02
1.83984020e-02	7.85589373e-03	5.01177809e-03
2.23791924e-02	-3.30818814e-02	6.89323366e-03
3.22705169e-02	1.19492040e-02	5.12829122e-03
6.89083183e-03	-1.70267518e-02	1.78981789e-02
3.98089854e-02	6.75733629e-03	1.15214084e-02
2.92207870e-02	1.70283459e-02	1.04065125e-02
3.16489177e-02	-2.42525745e-02	6.37818261e-03
-1.15868647e-03	-1.99572484e-02	2.47748677e-03
1.25856223e-02	-3.21487547e-02	1.81257708e-02
2.64749915e-02	-2.58287063e-02	8.68001744e-03
1.03590932e-03	-3.77368547e-02	5.84018900e-03
2.91028357e-02	-2.68792980e-02	1.81444353e-02
2.84044346e-02	-1.72427921e-02	5.76648741e-03
1.01275670e-02	-2.28060889e-02	6.79279424e-03
1.20489601e-02	-9.34071934e-03	7.43845035e-03
2.16226546e-02	-1.28318149e-02	1.80547765e-02
2.05498624e-02	-2.56543779e-02	5.34274174e-03
2.49830844e-02	1.63276657e-03	7.17103348e-03
3.40054929e-02	1.05080213e-02	2.02759721e-03
3.14359851e-02	1.88003737e-02	1.73676719e-02
2.66919126e-02	3.64538282e-03	2.05570427e-03
2.29101282e-02	-3.28763015e-02	1.92261296e-03
-1.51000219e-04	-3.65931426e-02	1.25099410e-02
3.56279685e-02	-6.49288145e-03	1.27016470e-02
2.76109714e-02	9.42158474e-03	5.73775488e-03
2.96562660e-02	-1.00868317e-02	6.53588916e-03
2.43144477e-02	-2.71682892e-02	5.50386728e-03
8.44961753e-03	-2.63179272e-02	2.42413914e-03
7.75399786e-03	-1.41440623e-02	5.77297216e-03
3.11633803e-02	-2.48774597e-02	1.03669853e-02
2.53799191e-02	1.13971670e-02	1.65179243e-02
-1.14531925e-02	-3.45787272e-02	6.17797057e-03
3.51945403e-02	-7.47184983e-03	8.74373708e-03
3.27368179e-02	4.34186986e-03	1.83340677e-02
1.67124255e-02	-1.69039683e-02	1.81533271e-02
1.93544203e-02	-6.18335320e-03	1.32001099e-02
2.98117473e-02	-5.75705029e-03	1.98702899e-03
2.97067048e-02	-5.43313571e-03	1.15215727e-02
3.29968861e-02	-1.24668014e-02	1.31849491e-02
-5.30260714e-03	-1.71299934e-02	1.71648329e-02
3.53754846e-02	5.72060976e-04	8.89321004e-03
1.92641451e-02	-1.90850450e-02	1.92552182e-03
3.29423553e-02	-4.20768672e-03	2.29191946e-03
2.29633238e-02	-1.33005807e-02	2.22363301e-03
3.24602455e-02	1.45756299e-02	1.91610897e-03
2.08885050e-02	1.34598799e-03	7.30309459e-03
3.21331491e-02	-8.43056086e-03	4.24040624e-03
2.48950861e-02	-2.76424510e-02	1.80340759e-02
1.88862055e-02	-2.86212227e-02	1.20637468e-02
3.58893348e-02	-7.02049445e-03	2.32646677e-03
2.96551903e-02	1.46540705e-02	1.82482267e-02
3.51867264e-02	7.18227025e-03	2.08811105e-03
3.46687410e-02	-1.95197211e-02	1.01207647e-02
3.16529512e-02	-1.16695995e-03	9.20326967e-03
8.23237299e-03	-1.59052617e-02	1.13611556e-02
-2.34499530e-03	-3.79267476e-02	5.96672129e-03
1.23073967e-02	-3.01806829e-02	1.93723757e-03
1.52505992e-02	-1.99366888e-02	1.79987161e-02
2.14481064e-02	-3.35131165e-02	1.67350586e-02
2.76086837e-02	1.77501008e-02	1.56680923e-02
-1.31414885e-02	-2.85222359e-02	1.80582742e-02
1.94614420e-02	-3.15308014e-02	4.62423714e-03
9.20782790e-03	-3.88820503e-02	4.96487576e-03
7.11251007e-03	-1.84900163e-02	7.35921390e-03
3.39948721e-02	-1.44456901e-02	8.61533398e-03
3.06702295e-02	-1.48257518e-02	1.99121686e-03
3.11252718e-02	-2.02782009e-02	5.57630250e-03
-1.17871462e-02	-3.07528694e-02	8.18494459e-03
2.19286193e-02	-2.44786539e-02	1.79936356e-02
6.48568014e-03	-1.52602713e-02	1.39063842e-02
2.14284544e-02	-9.30885617e-03	1.21876458e-02
3.53509730e-02	1.55614463e-02	6.04554658e-03
5.34456091e-03	-1.48498037e-02	5.73726090e-03
8.58241360e-03	-3.66061704e-02	2.10626977e-03
3.16459652e-02	-4.11429333e-04	1.44091709e-02
3.05923054e-02	-1.87865272e-02	1.74838649e-02
3.36368768e-02	1.35453899e-02	1.63609279e-02
1.65814550e-02	-3.07538727e-02	2.16795034e-03
1.82342760e-02	-3.13247651e-02	1.47555570e-02
3.51687445e-02	-1.90017429e-02	6.19201365e-03
1.05198550e-02	-3.19910071e-02	7.71512571e-03
1.93724741e-02	-3.49823588e-02	2.59936297e-03
3.90748344e-02	-1.96406861e-04	1.06906275e-02
1.56508662e-02	-3.63597156e-02	2.04635680e-03
2.51913233e-02	-9.35313056e-03	8.98975884e-03
2.56387228e-02	2.79262151e-03	1.81714868e-02
1.45786453e-02	-3.03554006e-02	1.08038527e-02
2.90309618e-02	-1.72240878e-03	1.80795085e-02
5.94628207e-03	-3.93514291e-02	1.13931785e-02
2.71964378e-02	-2.93846036e-02	1.53039563e-02
1.28691205e-02	-2.13614688e-02	1.37840281e-02
2.03133113e-02	-1.88966692e-02	1.02512433e-02
5.07689578e-03	-3.95631812e-02	5.88663939e-03
2.16204525e-02	3.12004628e-03	2.13278618e-03
3.70695695e-03	-8.15746183e-03	4.59337628e-03
1.47014138e-02	-2.64576117e-02	2.01761431e-03
-4.34672379e-03	-2.89502366e-02	7.30188548e-03
6.11056587e-03	-3.91065514e-02	2.13972124e-03
3.74199645e-02	1.23801094e-02	1.40663492e-02
3.12850422e-02	-1.22798137e-02	1.81195135e-02
3.25475416e-02	4.27165802e-03	2.05570117e-03
1.36392891e-02	-1.39639436e-02	9.28332388e-03
1.45849330e-02	-2.15897444e-02	6.33990717e-03
1.48625111e-02	-3.29192573e-02	4.58897616e-03
3.87283967e-02	-9.95152029e-03	1.79753101e-02
3.13468670e-02	-6.51760292e-03	7.69118516e-03
9.68351567e-03	-3.88360238e-02	9.06654063e-03
3.83148335e-02	1.14650803e-02	2.61868770e-03
1.61198274e-02	-2.39376767e-02	9.80689671e-03
3.36869639e-03	-3.25623475e-02	1.42841153e-02
7.52621356e-03	-2.80823415e-02	6.29864406e-03
3.78580124e-03	-3.66935356e-02	1.30912789e-02
-8.10891362e-03	-3.80244808e-02	2.27724951e-03
1.92736458e-03	-1.40315210e-02	1.68557670e-02
1.40637372e-03	-3.90177512e-02	1.80522080e-02
2.61077495e-02	-1.12855413e-02	5.50090424e-03
3.92963403e-02	-8.24557926e-03	1.43882959e-02
2.25167760e-02	-1.09319310e-02	4.87377828e-03
9.80522847e-03	-2.24407355e-02	1.81250921e-02
3.95787422e-02	-5.50499747e-03	7.06893073e-03
2.04267398e-02	-3.94350717e-03	1.50793554e-02
2.34102880e-03	-3.96649818e-02	9.33289126e-03
1.50476703e-02	-3.37906372e-02	1.31054000e-02
-5.22857767e-03	-3.60169487e-02	1.24339230e-02
1.77179826e-02	-2.45355497e-02	1.75733875e-02
1.34432214e-03	-3.93130606e-02	1.96055780e-03
3.67223167e-02	1.66921537e-03	1.76469786e-02
3.39525998e-02	6.68461594e-03	1.46738633e-02
3.98254372e-02	1.17834825e-03	1.50290322e-02
3.81277548e-02	-1.23913974e-02	7.70769338e-03
2.18582821e-02	-1.39760949e-02	5.72155106e-03
2.84348976e-02	-1.00498041e-02	1.80352776e-02
3.17764955e-02	6.08387129e-03	1.07625417e-02
1.64739518e-02	-1.82513581e-02	8.40171912e-03
1.14195428e-02	-2.41149592e-02	1.03570193e-02
3.93055649e-02	9.61639210e-03	1.81249203e-02
2.84418177e-02	-2.79849880e-02	1.15054808e-02
2.11083306e-02	-2.92996510e-02	7.41763450e-03
3.00194532e-02	-1.24087931e-02	9.99985343e-03
-9.09575754e-03	-2.71954453e-02	1.63656890e-02
3.95150998e-02	-3.55605719e-03	1.47490002e-02
1.79799854e-02	-2.71602475e-02	8.44187067e-03
1.94743190e-02	-1.63219946e-02	1.44092450e-02
3.20591097e-02	-2.37907867e-02	1.77669462e-02
7.74113751e-03	-8.90818015e-03	9.87437346e-03
2.60459594e-02	-2.07237045e-02	1.48686838e-02
3.26316808e-02	1.53887639e-02	1.25097611e-02
3.59084624e-02	-9.33159609e-04	2.09305925e-03
3.79754866e-02	1.20526513e-02	6.49374130e-03
2.98436834e-02	-4.23230101e-03	1.52225994e-02
5.45201404e-03	-1.12983516e-02	1.30505399e-02
3.06183116e-02	1.65763775e-02	5.56875515e-03
[...]
POINT_DATA 469
SCALARS Radius double 1
LOOKUP_TABLE default
2.00000000e-03
2.00000000e-03
2.00000000e-03
2.00000000e-03
2.00000000e-03
2.00000000e-03
2.00000000e-03
2.00000000e-03
2.00000000e-03
2.00000000e-03
2.00000000e-03
2.00000000e-03
2.00000000e-03
2.00000000e-03
2.00000000e-03
2.00000000e-03
2.00000000e-03
2.00000000e-03
2.00000000e-03
2.00000000e-03
2.00000000e-03
2.00000000e-03
2.00000000e-03
2.00000000e-03
2.00000000e-03
2.00000000e-03
2.00000000e-03
2.00000000e-03
2.00000000e-03
2.00000000e-03
2.00000000e-03
2.00000000e-03
2.00000000e-03
2.00000000e-03
2.00000000e-03
2.00000000e-03
2.00000000e-03
2.00000000e-03
2.00000000e-03
2.00000000e-03
2.00000000e-03
2.00000000e-03
2.00000000e-03
2.00000000e-03
2.00000000e-03
2.00000000e-03
2.00000000e-03
2.00000000e-03
2.00000000e-03
2.00000000e-03
2.00000000e-03
2.00000000e-03
2.00000000e-03
2.00000000e-03
2.00000000e-03
2.00000000e-03
2.00000000e-03
2.00000000e-03
2.00000000e-03
2.00000000e-03
2.00000000e-03
2.00000000e-03
2.00000000e-03
2.00000000e-03
2.00000000e-03
2.00000000e-03
2.00000000e-03
2.00000000e-03
2.00000000e-03
2.00000000e-03
2.00000000e-03
2.00000000e-03
2.00000000e-03
2.00000000e-03
2.00000000e-03
2.00000000e-03
2.00000000e-03
2.00000000e-03
2.00000000e-03
2.00000000e-03
2.00000000e-03
2.00000000e-03
2.00000000e-03
2.00000000e-03
2.00000000e-03
2.00000000e-03
2.00000000e-03
2.00000000e-03
2.00000000e-03
2.00000000e-03
2.00000000e-03
2.00000000e-03
2.00000000e-03
2.00000000e-03
2.00000000e-03
2.00000000e-03
2.00000000e-03
2.00000000e-03
2.00000000e-03
2.00000000e-03
2.00000000e-03
2.00000000e-03
2.00000000e-03
2.00000000e-03
2.00000000e-03
2.00000000e-03
2.00000000e-03
2.00000000e-03
2.00000000e-03
2.00000000e-03
2.00000000e-03
2.00000000e-03
2.00000000e-03
2.00000000e-03
2.00000000e-03
2.00000000e-03
2.00000000e-03
2.00000000e-03
2.00000000e-03
2.00000000e-03
2.00000000e-03
2.00000000e-03
2.00000000e-03
2.00000000e-03
2.00000000e-03
2.00000000e-03
2.00000000e-03
2.00000000e-03
2.00000000e-03
2.00000000e-03
2.00000000e-03
2.00000000e-03
2.00000000e-03
2.00000000e-03
2.00000000e-03
2.00000000e-03
2.00000000e-03
2.00000000e-03
2.00000000e-03
2.00000000e-03
2.00000000e-03
2.00000000e-03
2.00000000e-03
2.00000000e-03
2.00000000e-03
2.00000000e-03
2.00000000e-03
2.00000000e-03
2.00000000e-03
2.00000000e-03
2.00000000e-03
2.00000000e-03
2.00000000e-03
2.00000000e-03
2.00000000e-03
2.00000000e-03
2.00000000e-03
2.00000000e-03
2.00000000e-03
2.00000000e-03
2.00000000e-03
2.00000000e-03
2.00000000e-03
2.00000000e-03
2.00000000e-03
2.00000000e-03
2.00000000e-03
2.00000000e-03
2.00000000e-03
2.00000000e-03
2.00000000e-03
2.00000000e-03
2.00000000e-03
2.00000000e-03
2.00000000e-03
2.00000000e-03
2.00000000e-03
2.00000000e-03
2.00000000e-03
2.00000000e-03
2.00000000e-03
2.00000000e-03
2.00000000e-03
2.00000000e-03
2.00000000e-03
2.00000000e-03
2.00000000e-03
2.00000000e-03
2.00000000e-03
2.00000000e-03
2.00000000e-03
2.00000000e-03
2.00000000e-03
2.00000000e-03
2.00000000e-03
2.00000000e-03
2.00000000e-03
2.00000000e-03
2.00000000e-03
2.00000000e-03
2.00000000e-03
2.00000000e-03
2.00000000e-03
2.00000000e-03
2.00000000e-03
2.00000000e-03
2.00000000e-03
2.00000000e-03
2.00000000e-03
2.00000000e-03
2.00000000e-03
2.00000000e-03
2.00000000e-03
2.00000000e-03
2.00000000e-03
2.00000000e-03
2.00000000e-03
2.00000000e-03
2.00000000e-03
2.00000000e-03
2.00000000e-03
2.00000000e-03
2.00000000e-03
2.00000000e-03
2.00000000e-03
2.00000000e-03
2.00000000e-03
2.00000000e-03
2.00000000e-03
2.00000000e-03
2.00000000e-03
2.00000000e-03
2.00000000e-03
2.00000000e-03
2.00000000e-03
2.00000000e-03
2.00000000e-03
2.00000000e-03
2.00000000e-03
2.00000000e-03
2.00000000e-03
2.00000000e-03
2.00000000e-03
2.00000000e-03
2.00000000e-03
2.00000000e-03
2.00000000e-03
2.00000000e-03
2.00000000e-03
2.00000000e-03
2.00000000e-03
2.00000000e-03
2.00000000e-03
2.00000000e-03
2.00000000e-03
2.00000000e-03
2.00000000e-03
2.00000000e-03
2.00000000e-03
2.00000000e-03
2.00000000e-03
2.00000000e-03
2.00000000e-03
2.00000000e-03
2.00000000e-03
2.00000000e-03
2.00000000e-03
2.00000000e-03
2.00000000e-03
2.00000000e-03
2.00000000e-03
2.00000000e-03
2.00000000e-03
2.00000000e-03
2.00000000e-03
2.00000000e-03
2.00000000e-03
2.00000000e-03
2.00000000e-03
2.00000000e-03
2.00000000e-03
2.00000000e-03
2.00000000e-03
2.00000000e-03
2.00000000e-03
2.00000000e-03
2.00000000e-03
2.00000000e-03
2.00000000e-03
2.00000000e-03
2.00000000e-03
2.00000000e-03
2.00000000e-03
2.00000000e-03
2.00000000e-03
2.00000000e-03
2.00000000e-03
2.00000000e-03
2.00000000e-03
2.00000000e-03
2.00000000e-03
2.00000000e-03
2.00000000e-03
2.00000000e-03
2.00000000e-03
2.00000000e-03
2.00000000e-03
2.00000000e-03
2.00000000e-03
2.00000000e-03
2.00000000e-03
2.00000000e-03
2.00000000e-03
2.00000000e-03
2.00000000e-03
2.00000000e-03
2.00000000e-03
2.00000000e-03
2.00000000e-03
2.00000000e-03
2.00000000e-03
2.00000000e-03
2.00000000e-03
2.00000000e-03
2.00000000e-03
2.00000000e-03
2.00000000e-03
2.00000000e-03
2.00000000e-03
2.00000000e-03
2.00000000e-03
2.00000000e-03
2.00000000e-03
2.00000000e-03
2.00000000e-03
2.00000000e-03
2.00000000e-03
2.00000000e-03
2.00000000e-03
2.00000000e-03
2.00000000e-03
2.00000000e-03
2.00000000e-03
2.00000000e-03
2.00000000e-03
2.00000000e-03
2.00000000e-03
2.00000000e-03
2.00000000e-03
2.00000000e-03
2.00000000e-03
2.00000000e-03
2.00000000e-03
2.00000000e-03
2.00000000e-03
2.00000000e-03
2.00000000e-03
2.00000000e-03
2.00000000e-03
2.00000000e-03
2.00000000e-03
2.00000000e-03
2.00000000e-03
2.00000000e-03
2.00000000e-03
2.00000000e-03
2.00000000e-03
2.00000000e-03
2.00000000e-03
2.00000000e-03
2.00000000e-03
2.00000000e-03
2.00000000e-03
2.00000000e-03
2.00000000e-03
2.00000000e-03
2.00000000e-03
2.00000000e-03
2.00000000e-03
2.00000000e-03
2.00000000e-03
2.00000000e-03
2.00000000e-03
2.00000000e-03
2.00000000e-03
2.00000000e-03
2.00000000e-03
2.00000000e-03
2.00000000e-03
2.00000000e-03
2.00000000e-03
2.00000000e-03
2.00000000e-03
2.00000000e-03
2.00000000e-03
2.00000000e-03
2.00000000e-03
2.00000000e-03
2.00000000e-03
2.00000000e-03
2.00000000e-03
2.00000000e-03
2.00000000e-03
2.00000000e-03
2.00000000e-03
2.00000000e-03
2.00000000e-03
2.00000000e-03
2.00000000e-03
2.00000000e-03
2.00000000e-03
2.00000000e-03
2.00000000e-03
2.00000000e-03
2.00000000e-03
2.00000000e-03
2.00000000e-03
2.00000000e-03
2.00000000e-03
2.00000000e-03
2.00000000e-03
2.00000000e-03
2.00000000e-03
2.00000000e-03
2.00000000e-03
2.00000000e-03
2.00000000e-03
2.00000000e-03
2.00000000e-03
2.00000000e-03
2.00000000e-03
2.00000000e-03
2.00000000e-03
2.00000000e-03
2.00000000e-03
2.00000000e-03
2.00000000e-03
2.00000000e-03
2.00000000e-03
2.00000000e-03
2.00000000e-03
2.00000000e-03
2.00000000e-03
2.00000000e-03
2.00000000e-03
2.00000000e-03
2.00000000e-03
2.00000000e-03
2.00000000e-03
2.00000000e-03
2.00000000e-03
2.00000000e-03
2.00000000e-03
2.00000000e-03
2.00000000e-03
2.00000000e-03
2.00000000e-03
2.00000000e-03
2.00000000e-03
2.00000000e-03
2.00000000e-03
2.00000000e-03
2.00000000e-03
2.00000000e-03
2.00000000e-03
2.00000000e-03
2.00000000e-03
2.00000000e-03
2.00000000e-03
