# vtk DataFile Version 2.0
Particle data
ASCII
DATASET POLYDATA
POINTS 469 double
6.07522393e-03	-1.12200062e-02	4.73773235e-03
2.53997354e-02	-6.33826003e-04	1.49983923e-02
3.31926122e-02	-1.04619502e-03	1.87979130e-03
2.76897048e-02	-2.87873250e-02	1.78790428e-02
3.31935190e-02	3.50297385e-04	5.89248439e-03
-1.66265733e-02	-3.66217776e-02	2.07949228e-03
1.57092590e-02	3.29157101e-04	1.08105938e-02
9.11824814e-03	-2.75118128e-02	1.73984995e-02
3.10736908e-02	1.19209951e-02	1.82594767e-02
3.30021103e-02	-1.58943584e-02	1.04790276e-02
-1.27686307e-02	-3.82587510e-02	1.74233663e-02
1.49331826e-02	-8.60939515e-03	1.67622673e-02
3.40917275e-02	1.91540189e-02	1.45627052e-02
3.97669535e-02	2.95719039e-03	1.87942594e-03
-1.35707814e-02	-3.68099529e-02	1.27405081e-02
2.47436409e-02	-2.31222886e-02	1.23952900e-02
2.08941317e-02	-3.04506502e-02	1.38840588e-02
2.50911932e-02	1.30698093e-03	1.97540693e-03
1.01358213e-02	-3.07144042e-02	1.38768787e-02
-6.96871175e-03	-3.64186230e-02	1.02818702e-02
-1.19097304e-03	-3.64825898e-02	2.01746300e-03
2.73586639e-02	-2.38527711e-03	1.80177069e-02
2.79932850e-02	-2.55104304e-02	1.09876783e-02
1.43732140e-02	-1.35366203e-02	2.31522866e-03
2.75572068e-02	-1.05971584e-02	1.94660058e-03
3.30095293e-02	-1.91064886e-02	1.44384816e-02
5.26376261e-03	-3.94966196e-02	1.45748643e-02
2.62343223e-02	8.24344801e-03	9.88153339e-03
1.90088294e-02	-3.51176336e-02	1.69321744e-02
2.06937516e-02	-9.57806281e-04	1.38098323e-02
3.09226479e-02	1.27132160e-02	8.92977998e-03
1.30884601e-02	4.82250754e-03	2.03136669e-03
2.95750088e-02	7.05638114e-03	9.10787782e-03
2.54337675e-02	-9.98247403e-03	1.81273924e-02
2.38787814e-02	-1.71944391e-02	9.48479770e-03
3.98338125e-02	2.06643754e-03	1.34456123e-02
-5.52724470e-03	-2.71788727e-02	4.88910742e-03
1.11636850e-02	-3.44302370e-02	8.83613391e-03
2.23665103e-02	1.14716088e-03	1.05848628e-02
2.26392100e-02	-1.65043885e-02	2.27378845e-03
6.57903382e-03	-3.54211523e-02	8.05157252e-03
3.22350775e-02	2.19298597e-02	1.10341056e-02
3.12677760e-02	-9.36992426e-03	2.06827883e-03
1.98512365e-02	2.71720911e-03	6.43892985e-03
2.98794231e-02	-2.09343393e-02	1.25484022e-02
-1.72545938e-03	-3.47101364e-02	1.03439658e-02
4.99147988e-03	-2.26152935e-02	1.61392947e-02
1.24274608e-02	-7.14482190e-03	1.13241668e-02
8.92076135e-03	-1.99149743e-02	1.11904613e-02
2.14894132e-02	1.34635733e-02	1.81677993e-02
3.06122090e-02	8.22324383e-03	1.36592289e-02
2.16097912e-02	-4.84891469e-03	1.97290647e-03
2.82151344e-02	-2.26618067e-02	1.52283560e-02
1.05369639e-02	-2.60149859e-02	7.32196308e-03
3.11115704e-02	-2.35044252e-02	5.02698876e-03
1.61749864e-02	-3.68961133e-02	1.43256705e-02
3.12808055e-02	-1.87979642e-02	9.20750736e-03
-1.88835208e-03	-3.27117194e-02	1.58359787e-02
3.62240809e-02	-1.64934675e-02	1.39748963e-02
3.38071476e-02	-1.40227754e-02	1.80615252e-02
3.97954098e-02	-1.43808920e-03	1.74004691e-02
1.68574597e-02	-1.98866312e-02	1.17161471e-02
3.32600523e-03	-1.69097173e-02	1.81107834e-02
1.93999182e-02	-3.04715706e-02	1.01234065e-02
3.94947717e-02	7.24968898e-03	3.67301198e-03
-5.54422936e-03	-3.98382089e-02	6.61016987e-03
3.40790615e-02	-9.51896999e-03	5.45574658e-03
3.10276061e-02	4.30617890e-03	1.56353253e-02
3.52191839e-02	-1.89013513e-02	1.09808245e-02
3.53184577e-02	-4.29926178e-03	1.09305176e-02
6.84670478e-03	-3.91088394e-02	6.38887496e-03
2.90545605e-02	1.09289536e-02	3.22916362e-03
-9.16867940e-03	-3.09951377e-02	1.55045051e-02
3.00260414e-03	-3.68302038e-02	9.45915818e-03
2.16985706e-02	8.35111353e-03	6.17128858e-03
4.18367429e-03	-3.77217105e-02	1.80718914e-02
9.26795872e-03	-3.26616202e-02	5.49037621e-03
2.42169810e-02	1.96925953e-03	7.32041998e-03
3.00280079e-02	1.05734281e-03	2.10423697e-03
9.35127056e-03	-2.33389311e-02	1.73723602e-02
2.75350355e-05	-3.19140441e-02	6.00663637e-03
2.36124243e-02	-1.38612369e-02	6.94733092e-03
3.42170038e-02	-1.17371047e-02	1.96295787e-03
3.76047814e-02	-4.91926703e-03	1.81494725e-02
2.57117379e-02	-1.34455829e-02	2.02289491e-03
-5.16567681e-03	-3.94375576e-02	1.97658302e-03
1.30629942e-02	-2.50800657e-03	7.29526574e-03
2.43817583e-02	-2.71456085e-02	1.31913012e-02
3.03440272e-02	-7.64328683e-03	5.62353492e-03
1.63947344e-02	-2.69586665e-02	6.66312768e-03
8.65138393e-04	-3.59075587e-02	5.90693533e-03
2.40437000e-02	-3.19780789e-03	3.76695802e-03
2.87965100e-02	-2.65288564e-03	8.44167305e-03
7.89767614e-03	-3.88847692e-02	1.02001497e-02
3.43420724e-02	-1.43181976e-03	1.80512039e-02
2.55947103e-02	1.05777882e-02	1.89848877e-03
2.35766585e-02	-2.79973295e-02	8.74794379e-03
2.69931449e-02	-1.77439206e-02	1.81264927e-02
1.56421047e-02	-2.47772053e-03	1.41396369e-02
1.98837275e-02	-9.34384325e-03	1.09086649e-02
1.98045895e-02	-2.37878307e-02	2.02823454e-03
2.01959365e-02	-2.34348315e-02	1.10241714e-02
1.68433979e-02	-3.03353892e-02	1.32580337e-02
2.97954837e-02	6.79326471e-03	1.81737493e-02
2.88336031e-02	-2.20171639e-02	9.05692681e-03
1.10108249e-02	-1.18962081e-02	2.00021243e-03
2.36683441e-02	-2.40504353e-02	2.14738964e-03
1.03017781e-02	-1.91377556e-02	4.57006834e-03
3.58507286e-02	-7.37514402e-03	1.95482450e-03
2.93880171e-02	-6.44742093e-03	9.26548348e-03
1.96849202e-02	-2.72905387e-02	4.43270708e-03
7.84692801e-05	-3.75383576e-02	1.80678543e-02
-2.88536445e-03	-3.09941052e-02	1.32957059e-02
2.31568285e-02	-2.91765636e-02	2.14946586e-03
3.28635842e-02	-7.53722089e-03	1.80585321e-02
3.30751332e-02	-1.56056287e-02	2.01049394e-03
1.22972592e-02	-3.85860239e-02	9.97652498e-03
2.40573598e-02	-2.11690876e-02	9.37668296e-03
3.46652447e-02	6.67696679e-03	1.38748412e-02
3.40060159e-02	2.27188291e-02	6.18672216e-03
-3.14898367e-03	-2.86184225e-02	2.03187004e-03
7.29211387e-03	-1.29683708e-02	1.65571512e-02
-7.50934935e-03	-3.96241446e-02	1.64464445e-02
3.48663925e-02	-3.88366780e-03	1.48366371e-02
3.25056365e-02	1.77688034e-02	1.81297771e-02
-5.35116026e-03	-3.59688770e-02	4.11869093e-03
-1.44497408e-02	-3.37587658e-02	5.86710612e-03
3.16390075e-02	3.45640949e-03	1.15090587e-02
1.51141890e-02	-3.36487529e-02	8.30524096e-03
1.32592154e-02	-3.10987911e-02	1.98335930e-03
9.28454871e-03	-3.65822241e-02	5.55889752e-03
3.45746098e-02	1.75903189e-02	4.62572393e-03
1.03153894e-03	-3.13625483e-02	1.81584456e-02
3.79580770e-02	1.12857137e-02	1.34509169e-02
1.71095587e-02	-7.19507537e-03	1.28625494e-02
3.91383096e-02	-7.13292301e-03	4.85821678e-03
3.22086090e-02	5.57800251e-03	5.79224051e-03
-9.86699616e-03	-3.05506481e-02	5.88389260e-03
2.54728686e-02	-2.00055024e-02	1.41139118e-02
1.12748629e-02	-3.46825200e-02	1.72307363e-02
3.46313360e-02	-9.96787760e-03	1.51047856e-02
-5.40942133e-03	-3.26868465e-02	2.01881228e-03
-6.24439562e-03	-3.47474723e-02	1.38459607e-02
1.31478998e-02	-3.75883159e-02	6.04921488e-03
9.64624283e-03	-1.09539141e-02	8.47339219e-03
-9.17404268e-03	-3.89733526e-02	3.03426576e-03
3.17324038e-02	-2.43484958e-02	1.07595337e-02
-1.18615104e-02	-3.54349948e-02	2.04660438e-03
1.43862840e-02	-2.14198758e-02	7.64621243e-03
2.46002332e-02	-1.32312800e-02	1.81479933e-02
8.02666312e-04	-2.30144222e-02	1.57012385e-02
2.21292509e-02	-1.97874381e-02	1.79593374e-02
-2.18891995e-02	-3.33721053e-02	9.61794937e-03
1.57410399e-04	-3.99330146e-02	1.49580516e-02
2.35767102e-02	-2.87073550e-03	1.15550168e-02
8.92241154e-03	-2.43748302e-02	1.02096592e-02
-2.26562147e-02	-2.96801892e-02	6.37753705e-03
2.82940498e-02	-6.25565903e-03	2.01343501e-03
3.89037444e-02	1.00783603e-02	1.89447783e-03
1.30603370e-03	-2.75589062e-02	2.36821010e-03
3.13987262e-02	1.74879558e-02	7.39140987e-03
-1.80224649e-02	-3.32527645e-02	3.93798728e-03
3.77493814e-02	-1.26676613e-02	1.39509238e-02
1.45430604e-02	-3.00252460e-02	1.80842849e-02
2.83913691e-02	-1.67793731e-02	1.99714034e-03
2.34810976e-02	-6.73257059e-03	1.48798137e-02
2.07373271e-02	-1.28127272e-03	4.25930319e-03
1.74367832e-03	-2.02041909e-02	9.17239765e-03
2.38272823e-02	-2.94831621e-02	1.80601402e-02
2.11915222e-02	-2.45477686e-02	7.31105471e-03
-1.61924287e-02	-3.65895730e-02	8.62976911e-03
3.76921925e-02	-1.42027134e-02	2.61495085e-03
5.19958154e-03	-2.60114360e-02	1.22835079e-02
1.02087503e-02	-3.13475449e-03	1.40185938e-02
2.47159588e-02	5.54170702e-03	5.98933489e-03
9.66690128e-04	-1.67854319e-02	5.87494784e-03
2.74384246e-02	1.60797069e-02	1.25499530e-02
3.45627093e-02	9.88775215e-03	1.81962882e-02
1.01346743e-02	-2.56903504e-03	1.79773585e-02
1.38164838e-02	-2.45065358e-02	5.55640283e-03
2.50235350e-02	-3.08755514e-02	1.45024346e-02
1.39438378e-02	-1.85536827e-02	5.85349049e-03
2.21159374e-02	-2.46095463e-03	1.65779376e-02
2.62938098e-02	-3.00529699e-02	6.83541851e-03
2.14109930e-02	-9.81210684e-03	1.57643686e-02
-2.12914790e-03	-2.15644966e-02	4.26892775e-03
6.54913892e-03	-1.02013334e-02	8.65008963e-03
3.47422854e-02	1.78517499e-02	1.08172469e-02
-3.94588132e-03	-3.00529547e-02	1.75360456e-02
1.90451359e-02	-1.32682252e-03	7.73494904e-03
2.97322159e-02	-2.08900618e-02	1.79203006e-02
3.26109921e-02	-1.43341671e-02	1.43893034e-02
3.24624994e-02	-2.30121977e-02	1.42789133e-02
1.98888595e-02	-3.42412134e-02	7.78333414e-03
9.19860429e-03	-2.22222144e-02	6.68567864e-03
1.43049110e-02	-2.59924209e-02	1.81203824e-02
2.99189721e-02	-1.26493566e-02	1.08037926e-02
2.36312919e-02	-3.05237564e-03	8.35788927e-03
1.60596615e-02	-7.93127206e-03	9.54066026e-03
3.58725253e-02	-1.72072087e-02	1.78418518e-02
2.69572702e-03	-3.93282471e-02	1.17548127e-02
-3.10533769e-03	-3.64496502e-02	7.00013381e-03
1.61836118e-02	-2.70997066e-02	1.06510241e-02
3.59591311e-02	1.46874471e-02	1.82879478e-02
2.97098690e-02	-2.64063629e-02	1.42940411e-02
-1.58690483e-03	-3.09352653e-02	9.64596504e-03
1.17906166e-02	-1.29961087e-02	1.38754102e-02
7.46674408e-03	-3.58560734e-02	1.74621520e-02
3.56849967e-02	8.14889957e-03	4.53530258e-03
6.13778331e-03	-3.19182100e-02	1.48770849e-02
3.63165154e-02	-7.29141385e-03	1.30657677e-02
2.84359693e-02	-2.20856555e-02	2.08226692e-03
3.83178425e-02	-1.20053299e-02	5.88858620e-03
2.13621848e-02	-2.24441611e-02	1.47009979e-02
3.79540027e-02	1.15173949e-02	9.49132027e-03
[...]
POINT_DATA 469
SCALARS Radius double 1
LOOKUP_TABLE default
2.00000000e-03
2.00000000e-03
2.00000000e-03
2.00000000e-03
2.00000000e-03
2.00000000e-03
2.00000000e-03
2.00000000e-03
2.00000000e-03
2.00000000e-03
2.00000000e-03
2.00000000e-03
2.00000000e-03
2.00000000e-03
2.00000000e-03
2.00000000e-03
2.00000000e-03
2.00000000e-03
2.00000000e-03
2.00000000e-03
2.00000000e-03
2.00000000e-03
2.00000000e-03
2.00000000e-03
2.00000000e-03
2.00000000e-03
2.00000000e-03
2.00000000e-03
2.00000000e-03
2.00000000e-03
2.00000000e-03
2.00000000e-03
2.00000000e-03
2.00000000e-03
2.00000000e-03
2.00000000e-03
2.00000000e-03
2.00000000e-03
2.00000000e-03
2.00000000e-03
2.00000000e-03
2.00000000e-03
2.00000000e-03
2.00000000e-03
2.00000000e-03
2.00000000e-03
2.00000000e-03
2.00000000e-03
2.00000000e-03
2.00000000e-03
2.00000000e-03
2.00000000e-03
2.00000000e-03
2.00000000e-03
2.00000000e-03
2.00000000e-03
2.00000000e-03
2.00000000e-03
2.00000000e-03
2.00000000e-03
2.00000000e-03
2.00000000e-03
2.00000000e-03
2.00000000e-03
2.00000000e-03
2.00000000e-03
2.00000000e-03
2.00000000e-03
2.00000000e-03
2.00000000e-03
2.00000000e-03
2.00000000e-03
2.00000000e-03
2.00000000e-03
2.00000000e-03
2.00000000e-03
2.00000000e-03
2.00000000e-03
2.00000000e-03
2.00000000e-03
2.00000000e-03
2.00000000e-03
2.00000000e-03
2.00000000e-03
2.00000000e-03
2.00000000e-03
2.00000000e-03
2.00000000e-03
2.00000000e-03
2.00000000e-03
2.00000000e-03
2.00000000e-03
2.00000000e-03
2.00000000e-03
2.00000000e-03
2.00000000e-03
2.00000000e-03
2.00000000e-03
2.00000000e-03
2.00000000e-03
2.00000000e-03
2.00000000e-03
2.00000000e-03
2.00000000e-03
2.00000000e-03
2.00000000e-03
2.00000000e-03
2.00000000e-03
2.00000000e-03
2.00000000e-03
2.00000000e-03
2.00000000e-03
2.00000000e-03
2.00000000e-03
2.00000000e-03
2.00000000e-03
2.00000000e-03
2.00000000e-03
2.00000000e-03
2.00000000e-03
2.00000000e-03
2.00000000e-03
2.00000000e-03
2.00000000e-03
2.00000000e-03
2.00000000e-03
2.00000000e-03
2.00000000e-03
2.00000000e-03
2.00000000e-03
2.00000000e-03
2.00000000e-03
2.00000000e-03
2.00000000e-03
2.00000000e-03
2.00000000e-03
2.00000000e-03
2.00000000e-03
2.00000000e-03
2.00000000e-03
2.00000000e-03
2.00000000e-03
2.00000000e-03
2.00000000e-03
2.00000000e-03
2.00000000e-03
2.00000000e-03
2.00000000e-03
2.00000000e-03
2.00000000e-03
2.00000000e-03
2.00000000e-03
2.00000000e-03
2.00000000e-03
2.00000000e-03
2.00000000e-03
2.00000000e-03
2.00000000e-03
2.00000000e-03
2.00000000e-03
2.00000000e-03
2.00000000e-03
2.00000000e-03
2.00000000e-03
2.00000000e-03
2.00000000e-03
2.00000000e-03
2.00000000e-03
2.00000000e-03
2.00000000e-03
2.00000000e-03
2.00000000e-03
2.00000000e-03
2.00000000e-03
2.00000000e-03
2.00000000e-03
2.00000000e-03
2.00000000e-03
2.00000000e-03
2.00000000e-03
2.00000000e-03
2.00000000e-03
2.00000000e-03
2.00000000e-03
2.00000000e-03
2.00000000e-03
2.00000000e-03
2.00000000e-03
2.00000000e-03
2.00000000e-03
2.00000000e-03
2.00000000e-03
2.00000000e-03
2.00000000e-03
2.00000000e-03
2.00000000e-03
2.00000000e-03
2.00000000e-03
2.00000000e-03
2.00000000e-03
2.00000000e-03
2.00000000e-03
2.00000000e-03
2.00000000e-03
2.00000000e-03
2.00000000e-03
2.00000000e-03
2.00000000e-03
2.00000000e-03
2.00000000e-03
2.00000000e-03
2.00000000e-03
2.00000000e-03
2.00000000e-03
2.00000000e-03
2.00000000e-03
2.00000000e-03
2.00000000e-03
2.00000000e-03
2.00000000e-03
2.00000000e-03
2.00000000e-03
2.00000000e-03
2.00000000e-03
2.00000000e-03
2.00000000e-03
2.00000000e-03
2.00000000e-03
2.00000000e-03
2.00000000e-03
2.00000000e-03
2.00000000e-03
2.00000000e-03
2.00000000e-03
2.00000000e-03
2.00000000e-03
2.00000000e-03
2.00000000e-03
2.00000000e-03
2.00000000e-03
2.00000000e-03
2.00000000e-03
2.00000000e-03
2.00000000e-03
2.00000000e-03
2.00000000e-03
2.00000000e-03
2.00000000e-03
2.00000000e-03
2.00000000e-03
2.00000000e-03
2.00000000e-03
2.00000000e-03
2.00000000e-03
2.00000000e-03
2.00000000e-03
2.00000000e-03
2.00000000e-03
2.00000000e-03
2.00000000e-03
2.00000000e-03
2.00000000e-03
2.00000000e-03
2.00000000e-03
2.00000000e-03
2.00000000e-03
2.00000000e-03
2.00000000e-03
2.00000000e-03
2.00000000e-03
2.00000000e-03
2.00000000e-03
2.00000000e-03
2.00000000e-03
2.00000000e-03
2.00000000e-03
2.00000000e-03
2.00000000e-03
2.00000000e-03
2.00000000e-03
2.00000000e-03
2.00000000e-03
2.00000000e-03
2.00000000e-03
2.00000000e-03
2.00000000e-03
2.00000000e-03
2.00000000e-03
2.00000000e-03
2.00000000e-03
2.00000000e-03
2.00000000e-03
2.00000000e-03
2.00000000e-03
2.00000000e-03
2.00000000e-03
2.00000000e-03
2.00000000e-03
2.00000000e-03
2.00000000e-03
2.00000000e-03
2.00000000e-03
2.00000000e-03
2.00000000e-03
2.00000000e-03
2.00000000e-03
2.00000000e-03
2.00000000e-03
2.00000000e-03
2.00000000e-03
2.00000000e-03
2.00000000e-03
2.00000000e-03
2.00000000e-03
2.00000000e-03
2.00000000e-03
2.00000000e-03
2.00000000e-03
2.00000000e-03
2.00000000e-03
2.00000000e-03
2.00000000e-03
2.00000000e-03
2.00000000e-03
2.00000000e-03
2.00000000e-03
2.00000000e-03
2.00000000e-03
2.00000000e-03
2.00000000e-03
2.00000000e-03
2.00000000e-03
2.00000000e-03
2.00000000e-03
2.00000000e-03
2.00000000e-03
2.00000000e-03
2.00000000e-03
2.00000000e-03
2.00000000e-03
2.00000000e-03
2.00000000e-03
2.00000000e-03
2.00000000e-03
2.00000000e-03
2.00000000e-03
2.00000000e-03
2.00000000e-03
2.00000000e-03
2.00000000e-03
2.00000000e-03
2.00000000e-03
2.00000000e-03
2.00000000e-03
2.00000000e-03
2.00000000e-03
2.00000000e-03
2.00000000e-03
2.00000000e-03
2.00000000e-03
2.00000000e-03
2.00000000e-03
2.00000000e-03
2.00000000e-03
2.00000000e-03
2.00000000e-03
2.00000000e-03
2.00000000e-03
2.00000000e-03
2.00000000e-03
2.00000000e-03
2.00000000e-03
2.00000000e-03
2.00000000e-03
2.00000000e-03
2.00000000e-03
2.00000000e-03
2.00000000e-03
2.00000000e-03
2.00000000e-03
2.00000000e-03
2.00000000e-03
2.00000000e-03
2.00000000e-03
2.00000000e-03
2.00000000e-03
2.00000000e-03
2.00000000e-03
2.00000000e-03
2.00000000e-03
2.00000000e-03
2.00000000e-03
2.00000000e-03
2.00000000e-03
2.00000000e-03
2.00000000e-03
2.00000000e-03
2.00000000e-03
2.00000000e-03
2.00000000e-03
2.00000000e-03
2.00000000e-03
2.00000000e-03
2.00000000e-03
2.00000000e-03
2.00000000e-03
2.00000000e-03
2.00000000e-03
2.00000000e-03
2.00000000e-03
2.00000000e-03
2.00000000e-03
2.00000000e-03
2.00000000e-03
2.00000000e-03
2.00000000e-03
2.00000000e-03
2.00000000e-03
2.00000000e-03
2.00000000e-03
2.00000000e-03
2.00000000e-03
2.00000000e-03
2.00000000e-03
2.00000000e-03
2.00000000e-03
2.00000000e-03
2.00000000e-03
2.00000000e-03
2.00000000e-03
2.00000000e-03
2.00000000e-03
2.00000000e-03
2.00000000e-03
2.00000000e-03
2.00000000e-03
2.00000000e-03
2.00000000e-03
2.00000000e-03
2.00000000e-03
2.00000000e-03
2.00000000e-03
2.00000000e-03
2.00000000e-03
2.00000000e-03
2.00000000e-03
2.00000000e-03
2.00000000e-03
2.00000000e-03
2.00000000e-03
2.00000000e-03
2.00000000e-03
2.00000000e-03
2.00000000e-03
2.00000000e-03
2.00000000e-03
2.00000000e-03
2.00000000e-03
2.00000000e-03
2.00000000e-03
2.00000000e-03
2.00000000e-03
2.00000000e-03
2.00000000e-03
2.00000000e-03
2.00000000e-03
2.00000000e-03
2.00000000e-03
2.00000000e-03
