# vtk DataFile Version 2.0
Particle data
ASCII
DATASET POLYDATA
POINTS 469 double
3.51982832e-02	4.69065114e-04	9.00319720e-03
3.10582499e-02	-9.55261296e-03	1.46533690e-02
2.43986755e-02	-1.90110307e-02	5.84605780e-03
3.59292441e-03	-1.28868363e-02	1.06285793e-02
2.62551664e-02	-9.50448091e-03	2.88245973e-03
4.00833668e-02	4.12344439e-03	2.64588037e-03
3.36288468e-02	-6.29758107e-04	1.17101028e-02
1.14922690e-02	-1.01856827e-02	1.79257688e-02
3.21637207e-02	-1.73443578e-02	1.80431769e-02
-8.97447657e-04	-3.81014674e-02	1.80009363e-02
3.93087859e-02	1.00558881e-02	1.81338758e-02
3.09954306e-02	-6.55842576e-03	1.77886395e-02
2.48109485e-02	-3.11866137e-02	1.17550252e-02
2.33742888e-02	-1.56919020e-02	3.01242995e-03
3.91411338e-02	6.06308123e-03	1.44817748e-02
-3.56410313e-03	-3.44853380e-02	1.13139080e-02
9.68633388e-03	-1.01810666e-02	1.27290721e-02
3.31538345e-02	-1.29729172e-02	1.82548931e-03
9.10802744e-03	-1.54204139e-02	1.27197497e-02
3.48382938e-02	1.01881231e-02	1.17653179e-02
3.03712224e-02	1.06285547e-02	1.98278736e-03
2.88963775e-02	-2.35016650e-02	1.81481203e-02
-1.58515987e-02	-3.72705983e-02	2.52899886e-03
1.79488528e-02	-1.36824525e-02	2.07070694e-03
1.96242397e-02	-1.87160796e-02	2.03686508e-03
3.63034360e-03	-3.54663290e-02	8.97565950e-03
2.43073839e-02	1.50495363e-02	1.27074568e-02
3.23103873e-02	-1.76832710e-02	1.36518192e-02
3.34658843e-03	-1.09566364e-02	7.06625069e-03
1.62853592e-02	-9.24599621e-03	1.39422907e-02
2.94311133e-02	-1.63729479e-02	1.01258888e-02
3.86690351e-02	-1.21069243e-02	2.11428667e-03
3.37857528e-02	-1.08602801e-02	5.71381369e-03
1.82533820e-02	-2.25694715e-02	1.79185915e-02
1.14557789e-02	-3.83597625e-02	1.13291742e-02
2.68895445e-02	-2.02041066e-02	1.14967690e-02
3.96327906e-02	4.90021502e-03	6.47866046e-03
1.17744954e-02	4.02942291e-03	1.07220812e-02
3.19174931e-02	-4.42298210e-03	1.09765337e-02
2.15924919e-02	-1.20399317e-02	2.15467450e-03
1.70738872e-02	3.73344214e-03	7.50451826e-03
3.82072715e-02	-9.59329606e-03	1.50176793e-02
9.64462352e-03	-3.80569931e-02	2.16819811e-03
2.44145208e-02	-2.69580262e-03	1.45137841e-02
9.88833978e-03	-2.79117782e-02	1.67670241e-02
2.99798904e-02	1.03325942e-02	1.18224806e-02
2.49868450e-02	5.25577048e-03	1.57443482e-02
1.77691343e-02	-4.50805037e-03	7.07615447e-03
1.29005079e-02	-1.51332166e-02	1.29369143e-02
2.87305307e-02	-2.24905067e-04	1.74882619e-02
1.31421400e-02	-8.20436900e-03	2.39527456e-03
1.40032893e-02	-1.50654671e-02	8.97761013e-03
3.29253516e-03	-1.00707067e-02	1.36072729e-02
1.29792789e-02	-1.32497013e-02	7.73601772e-03
-1.30153552e-03	-3.60807428e-02	1.05757973e-02
8.27156902e-03	-1.92157391e-03	1.41391356e-02
-3.55606915e-03	-4.00453813e-02	8.76063221e-03
2.76730837e-02	9.27270281e-03	1.58501227e-02
1.32149728e-02	-3.41707562e-02	1.42396807e-02
7.56376608e-03	-3.10494550e-02	1.59538815e-02
1.51001051e-02	-3.33924546e-02	1.77638099e-02
1.65617166e-02	-2.51679533e-02	1.01812026e-02
2.11046292e-02	-9.42523470e-03	1.77953675e-02
-4.21644223e-03	-2.88811879e-02	1.03813038e-02
2.62460218e-02	-2.28240631e-02	4.12513188e-03
3.51929775e-02	1.54242741e-02	5.93609329e-03
4.78478778e-03	-4.00931353e-02	3.24676481e-03
3.00846497e-02	-1.05503074e-02	1.81316951e-02
6.86778746e-03	-3.48922519e-02	5.98547496e-03
2.25395230e-02	-3.29954710e-02	9.59862937e-03
2.25960136e-02	1.03074289e-02	4.28706419e-03
3.00919297e-02	-2.35534707e-02	2.52459979e-03
3.46214064e-02	4.08903821e-03	1.79330158e-02
2.76792195e-02	1.35456101e-02	8.70103840e-03
3.89565460e-02	-7.03788875e-03	6.07172222e-03
2.76108990e-02	1.64878172e-02	1.55719153e-02
1.40601647e-02	-4.07038919e-03	9.04811068e-03
2.94186592e-02	-1.34103951e-03	9.81888265e-03
2.14280822e-02	-3.48684395e-02	1.81688881e-02
-3.98898585e-03	-3.28039074e-02	1.69634089e-02
2.77629806e-02	9.41305014e-03	5.38383014e-03
1.88543897e-02	-2.45501697e-02	6.49947443e-03
1.48274661e-02	-2.74524817e-02	1.89158742e-03
1.22423505e-02	-2.54282404e-02	1.79791068e-02
1.38556336e-02	-3.12273663e-02	2.40725509e-03
3.54231511e-02	1.47474761e-02	1.79475966e-03
3.56722559e-02	-7.60065380e-03	1.43953233e-02
-9.14084171e-03	-3.75706789e-02	1.04626161e-02
1.97119241e-02	-3.20248424e-02	6.42659439e-03
5.39593298e-03	-3.09417154e-02	4.23713283e-03
2.91414253e-02	1.36967236e-02	4.72511421e-03
3.09435377e-02	2.49129196e-03	2.16972442e-03
3.14626597e-02	-2.15748898e-02	6.17231279e-03
2.54301700e-02	1.70707846e-02	9.48301247e-03
2.74502921e-02	-1.50889749e-02	6.82657316e-03
3.45152141e-02	-2.02624457e-02	8.38917038e-03
-6.86467416e-03	-3.21441893e-02	5.76030243e-03
4.60619558e-03	-3.56711881e-02	1.33921279e-02
2.09772223e-02	-1.69848976e-02	1.79801738e-02
2.33098100e-02	-1.45231251e-02	7.17794566e-03
4.14811230e-03	-3.01345571e-02	8.11342641e-03
5.71853506e-03	-3.21689707e-02	1.24897736e-02
-1.02011373e-03	-1.77414718e-02	1.59259501e-02
2.55813562e-02	-3.11283279e-02	1.71245666e-02
7.39115633e-03	-3.25332927e-02	7.24318852e-03
2.03666723e-02	-3.37020067e-03	2.40611994e-03
1.05163934e-02	-1.85356671e-02	5.11351188e-03
8.13781599e-03	-2.27506673e-02	7.52349660e-03
1.76378995e-03	-3.74833644e-02	1.76242730e-03
2.72228953e-02	-6.88502880e-03	5.34310985e-03
-2.66864930e-03	-3.65328635e-02	1.84958609e-03
2.82428905e-02	1.32044006e-02	1.82476335e-02
2.63303600e-02	6.89169936e-03	1.06424809e-02
2.69365590e-03	-2.00874647e-02	2.40307866e-03
1.79034119e-02	-2.85956136e-02	1.46459678e-02
8.28645209e-03	-3.22862617e-02	1.98101339e-03
1.75708995e-02	7.01352243e-03	9.94327479e-03
-3.16372855e-03	-3.83016703e-02	4.95606365e-03
2.83416735e-02	-1.27727952e-02	1.05578392e-02
3.93813622e-02	-8.73660974e-03	7.47371531e-03
3.18154902e-02	5.41965205e-03	1.87866661e-03
1.69714499e-02	-1.73582084e-02	1.61320665e-02
3.63505785e-02	1.22143233e-02	1.80091765e-02
1.96383425e-02	-3.49054378e-02	5.65641894e-03
2.91093033e-02	-2.68869587e-02	1.82340634e-02
3.41388639e-02	1.21160854e-02	5.21759527e-03
3.99691399e-02	1.20666306e-03	5.66092166e-03
3.22958293e-02	-5.28193443e-03	7.45614709e-03
1.06654932e-02	-4.42604257e-03	1.10155792e-02
1.75845434e-02	-3.98236192e-04	2.00811954e-03
1.39462560e-02	-1.53468902e-03	6.16020339e-03
3.02612998e-02	-2.54554955e-02	4.30437144e-03
2.42760790e-02	9.10749555e-03	1.77922571e-02
3.45232799e-02	-1.20829543e-02	1.30183320e-02
1.89522896e-02	-1.46719289e-02	8.73454319e-03
1.57676142e-02	-3.71084922e-02	1.38241182e-02
2.93800465e-02	-1.61851855e-02	4.02885945e-03
3.65159077e-02	1.48518865e-03	2.00583182e-03
1.56471477e-02	-1.77610733e-02	1.24156569e-02
1.69689478e-02	3.07834672e-03	1.68519559e-02
1.45001951e-02	-3.05496512e-02	1.55869994e-02
3.33928642e-02	9.46952098e-03	1.89683295e-03
3.18471597e-02	9.71592570e-03	1.50125342e-02
1.23038807e-02	5.81522674e-04	6.11551157e-03
3.19650071e-02	2.23852451e-03	8.72116283e-03
3.80017356e-02	1.10584701e-02	2.82610964e-03
-1.13659694e-02	-3.85463986e-02	2.49340381e-03
3.92199462e-02	8.20514669e-03	2.33238445e-03
1.57695450e-02	-1.97978052e-02	8.43967064e-03
5.00999398e-03	-2.91041234e-02	1.51906520e-02
2.94323932e-02	4.31760778e-03	1.14081229e-02
1.06795008e-02	-2.36910292e-02	8.29588738e-03
4.02352232e-02	-1.18569629e-03	1.17849965e-02
3.06815717e-02	1.47740237e-02	1.30452360e-02
1.19085635e-02	-1.00634043e-02	9.24839266e-03
2.54794717e-03	-1.88829255e-02	1.22961273e-02
3.96038465e-02	-2.98557853e-03	4.59236247e-03
2.22419924e-02	-1.18525852e-02	5.05196896e-03
2.16717084e-02	-3.41906108e-02	1.41727589e-02
2.67140995e-02	-1.55223320e-03	2.16984219e-03
3.21943299e-02	-1.77444185e-02	7.12262976e-03
4.01711744e-02	6.12701367e-04	1.87044210e-03
1.69431641e-02	-3.53425577e-02	9.53983344e-03
4.05978787e-03	-7.23087115e-03	1.75905329e-02
1.51776575e-02	-2.24369277e-02	2.02755609e-03
2.84548916e-02	-6.98503801e-03	1.29652286e-02
1.52825267e-02	-9.90367041e-03	1.06408754e-02
3.42776314e-02	7.07289576e-03	5.80119550e-03
-2.69437893e-03	-2.41198051e-02	1.77875939e-02
-7.71238893e-03	-3.79553661e-02	5.93926692e-03
4.00582706e-02	2.19929431e-03	9.64336745e-03
7.20647524e-03	-3.62642815e-02	1.06461891e-02
2.06925581e-02	-2.15971466e-03	1.05036250e-02
3.23160973e-02	-5.59844215e-03	1.48342082e-02
2.99473444e-02	1.20022097e-03	5.43220536e-03
3.52737249e-02	-4.36251890e-03	1.22001974e-02
3.68639987e-02	-1.48325893e-02	1.82462507e-03
2.38008861e-02	-2.73980075e-02	1.79190576e-02
3.92322629e-02	-5.65304322e-03	1.80224503e-02
1.46584053e-02	-2.38795394e-02	7.09492042e-03
7.33215331e-03	-1.19055750e-02	8.76170185e-03
1.64574559e-02	-3.05444825e-02	4.95884231e-03
2.74931210e-02	-2.92946997e-03	1.78821258e-02
-7.32443705e-03	-2.78839597e-02	9.95559337e-03
2.17918546e-02	-2.14731254e-02	1.11041910e-02
3.93229169e-02	-4.88869368e-03	9.87313726e-03
3.45134870e-02	5.24338399e-03	1.36590759e-02
3.68991991e-02	-1.56424405e-02	1.43586362e-02
2.43659038e-02	1.16734669e-05	1.79464175e-02
3.93686782e-02	-7.55546060e-03	1.59542550e-03
2.25098163e-04	-3.14945772e-02	1.42466613e-02
1.62246992e-02	-2.42677029e-02	1.40464304e-02
-1.36889256e-02	-3.73400694e-02	1.48901336e-02
-3.87591651e-03	-2.27075139e-02	1.02316534e-02
2.01626523e-02	-1.72422586e-02	5.63182767e-03
1.44617876e-02	-5.02235985e-03	1.77937955e-02
2.21653729e-02	-2.62076934e-02	1.03789373e-02
6.73079220e-03	-2.02811960e-02	9.88749794e-03
2.40864688e-02	-5.29233158e-03	9.70692099e-03
2.96851930e-03	-3.44356261e-02	1.81242616e-02
3.08487142e-02	1.65349356e-02	9.99070206e-03
2.99755313e-02	1.24631300e-02	7.46159550e-03
-8.59449906e-03	-3.43925623e-02	1.63024752e-02
2.88572548e-02	-2.68751190e-02	1.16341354e-02
9.77757173e-04	-3.56928524e-02	1.48428262e-02
2.50746847e-02	3.33480254e-03	8.29775034e-03
1.35898032e-02	-8.85475421e-03	1.52154596e-02
2.22187618e-02	1.21630339e-02	1.65980158e-02
2.81655992e-02	-1.75714947e-02	1.48595532e-02
1.47971414e-02	-1.40956613e-03	1.34251361e-02
1.14311431e-02	-3.92557224e-02	1.50540042e-02
6.77703927e-03	-2.82166745e-02	2.10317015e-03
8.59296728e-03	-3.64413579e-02	1.47230099e-02
1.13223239e-02	-3.06540593e-02	1.43885530e-02
3.17024980e-02	-1.31407488e-02	1.49047457e-02
2.40768351e-02	-1.90967372e-02	2.03052621e-03
[...]
POINT_DATA 469
SCALARS Radius double 1
LOOKUP_TABLE default
2.00000000e-03
2.00000000e-03
2.00000000e-03
2.00000000e-03
2.00000000e-03
2.00000000e-03
2.00000000e-03
2.00000000e-03
2.00000000e-03
2.00000000e-03
2.00000000e-03
2.00000000e-03
2.00000000e-03
2.00000000e-03
2.00000000e-03
2.00000000e-03
2.00000000e-03
2.00000000e-03
2.00000000e-03
2.00000000e-03
2.00000000e-03
2.00000000e-03
2.00000000e-03
2.00000000e-03
2.00000000e-03
2.00000000e-03
2.00000000e-03
2.00000000e-03
2.00000000e-03
2.00000000e-03
2.00000000e-03
2.00000000e-03
2.00000000e-03
2.00000000e-03
2.00000000e-03
2.00000000e-03
2.00000000e-03
2.00000000e-03
2.00000000e-03
2.00000000e-03
2.00000000e-03
2.00000000e-03
2.00000000e-03
2.00000000e-03
2.00000000e-03
2.00000000e-03
2.00000000e-03
2.00000000e-03
2.00000000e-03
2.00000000e-03
2.00000000e-03
2.00000000e-03
2.00000000e-03
2.00000000e-03
2.00000000e-03
2.00000000e-03
2.00000000e-03
2.00000000e-03
2.00000000e-03
2.00000000e-03
2.00000000e-03
2.00000000e-03
2.00000000e-03
2.00000000e-03
2.00000000e-03
2.00000000e-03
2.00000000e-03
2.00000000e-03
2.00000000e-03
2.00000000e-03
2.00000000e-03
2.00000000e-03
2.00000000e-03
2.00000000e-03
2.00000000e-03
2.00000000e-03
2.00000000e-03
2.00000000e-03
2.00000000e-03
2.00000000e-03
2.00000000e-03
2.00000000e-03
2.00000000e-03
2.00000000e-03
2.00000000e-03
2.00000000e-03
2.00000000e-03
2.00000000e-03
2.00000000e-03
2.00000000e-03
2.00000000e-03
2.00000000e-03
2.00000000e-03
2.00000000e-03
2.00000000e-03
2.00000000e-03
2.00000000e-03
2.00000000e-03
2.00000000e-03
2.00000000e-03
2.00000000e-03
2.00000000e-03
2.00000000e-03
2.00000000e-03
2.00000000e-03
2.00000000e-03
2.00000000e-03
2.00000000e-03
2.00000000e-03
2.00000000e-03
2.00000000e-03
2.00000000e-03
2.00000000e-03
2.00000000e-03
2.00000000e-03
2.00000000e-03
2.00000000e-03
2.00000000e-03
2.00000000e-03
2.00000000e-03
2.00000000e-03
2.00000000e-03
2.00000000e-03
2.00000000e-03
2.00000000e-03
2.00000000e-03
2.00000000e-03
2.00000000e-03
2.00000000e-03
2.00000000e-03
2.00000000e-03
2.00000000e-03
2.00000000e-03
2.00000000e-03
2.00000000e-03
2.00000000e-03
2.00000000e-03
2.00000000e-03
2.00000000e-03
2.00000000e-03
2.00000000e-03
2.00000000e-03
2.00000000e-03
2.00000000e-03
2.00000000e-03
2.00000000e-03
2.00000000e-03
2.00000000e-03
2.00000000e-03
2.00000000e-03
2.00000000e-03
2.00000000e-03
2.00000000e-03
2.00000000e-03
2.00000000e-03
2.00000000e-03
2.00000000e-03
2.00000000e-03
2.00000000e-03
2.00000000e-03
2.00000000e-03
2.00000000e-03
2.00000000e-03
2.00000000e-03
2.00000000e-03
2.00000000e-03
2.00000000e-03
2.00000000e-03
2.00000000e-03
2.00000000e-03
2.00000000e-03
2.00000000e-03
2.00000000e-03
2.00000000e-03
2.00000000e-03
2.00000000e-03
2.00000000e-03
2.00000000e-03
2.00000000e-03
2.00000000e-03
2.00000000e-03
2.00000000e-03
2.00000000e-03
2.00000000e-03
2.00000000e-03
2.00000000e-03
2.00000000e-03
2.00000000e-03
2.00000000e-03
2.00000000e-03
2.00000000e-03
2.00000000e-03
2.00000000e-03
2.00000000e-03
2.00000000e-03
2.00000000e-03
2.00000000e-03
2.00000000e-03
2.00000000e-03
2.00000000e-03
2.00000000e-03
2.00000000e-03
2.00000000e-03
2.00000000e-03
2.00000000e-03
2.00000000e-03
2.00000000e-03
2.00000000e-03
2.00000000e-03
2.00000000e-03
2.00000000e-03
2.00000000e-03
2.00000000e-03
2.00000000e-03
2.00000000e-03
2.00000000e-03
2.00000000e-03
2.00000000e-03
2.00000000e-03
2.00000000e-03
2.00000000e-03
2.00000000e-03
2.00000000e-03
2.00000000e-03
2.00000000e-03
2.00000000e-03
2.00000000e-03
2.00000000e-03
2.00000000e-03
2.00000000e-03
2.00000000e-03
2.00000000e-03
2.00000000e-03
2.00000000e-03
2.00000000e-03
2.00000000e-03
2.00000000e-03
2.00000000e-03
2.00000000e-03
2.00000000e-03
2.00000000e-03
2.00000000e-03
2.00000000e-03
2.00000000e-03
2.00000000e-03
2.00000000e-03
2.00000000e-03
2.00000000e-03
2.00000000e-03
2.00000000e-03
2.00000000e-03
2.00000000e-03
2.00000000e-03
2.00000000e-03
2.00000000e-03
2.00000000e-03
2.00000000e-03
2.00000000e-03
2.00000000e-03
2.00000000e-03
2.00000000e-03
2.00000000e-03
2.00000000e-03
2.00000000e-03
2.00000000e-03
2.00000000e-03
2.00000000e-03
2.00000000e-03
2.00000000e-03
2.00000000e-03
2.00000000e-03
2.00000000e-03
2.00000000e-03
2.00000000e-03
2.00000000e-03
2.00000000e-03
2.00000000e-03
2.00000000e-03
2.00000000e-03
2.00000000e-03
2.00000000e-03
2.00000000e-03
2.00000000e-03
2.00000000e-03
2.00000000e-03
2.00000000e-03
2.00000000e-03
2.00000000e-03
2.00000000e-03
2.00000000e-03
2.00000000e-03
2.00000000e-03
2.00000000e-03
2.00000000e-03
2.00000000e-03
2.00000000e-03
2.00000000e-03
2.00000000e-03
2.00000000e-03
2.00000000e-03
2.00000000e-03
2.00000000e-03
2.00000000e-03
2.00000000e-03
2.00000000e-03
2.00000000e-03
2.00000000e-03
2.00000000e-03
2.00000000e-03
2.00000000e-03
2.00000000e-03
2.00000000e-03
2.00000000e-03
2.00000000e-03
2.00000000e-03
2.00000000e-03
2.00000000e-03
2.00000000e-03
2.00000000e-03
2.00000000e-03
2.00000000e-03
2.00000000e-03
2.00000000e-03
2.00000000e-03
2.00000000e-03
2.00000000e-03
2.00000000e-03
2.00000000e-03
2.00000000e-03
2.00000000e-03
2.00000000e-03
2.00000000e-03
2.00000000e-03
2.00000000e-03
2.00000000e-03
2.00000000e-03
2.00000000e-03
2.00000000e-03
2.00000000e-03
2.00000000e-03
2.00000000e-03
2.00000000e-03
2.00000000e-03
2.00000000e-03
2.00000000e-03
2.00000000e-03
2.00000000e-03
2.00000000e-03
2.00000000e-03
2.00000000e-03
2.00000000e-03
2.00000000e-03
2.00000000e-03
2.00000000e-03
2.00000000e-03
2.00000000e-03
2.00000000e-03
2.00000000e-03
2.00000000e-03
2.00000000e-03
2.00000000e-03
2.00000000e-03
2.00000000e-03
2.00000000e-03
2.00000000e-03
2.00000000e-03
2.00000000e-03
2.00000000e-03
2.00000000e-03
2.00000000e-03
2.00000000e-03
2.00000000e-03
2.00000000e-03
2.00000000e-03
2.00000000e-03
2.00000000e-03
2.00000000e-03
2.00000000e-03
2.00000000e-03
2.00000000e-03
2.00000000e-03
2.00000000e-03
2.00000000e-03
2.00000000e-03
2.00000000e-03
2.00000000e-03
2.00000000e-03
2.00000000e-03
2.00000000e-03
2.00000000e-03
2.00000000e-03
2.00000000e-03
2.00000000e-03
2.00000000e-03
2.00000000e-03
2.00000000e-03
2.00000000e-03
2.00000000e-03
2.00000000e-03
2.00000000e-03
2.00000000e-03
2.00000000e-03
2.00000000e-03
2.00000000e-03
2.00000000e-03
2.00000000e-03
2.00000000e-03
2.00000000e-03
2.00000000e-03
2.00000000e-03
2.00000000e-03
2.00000000e-03
2.00000000e-03
2.00000000e-03
2.00000000e-03
2.00000000e-03
2.00000000e-03
2.00000000e-03
2.00000000e-03
2.00000000e-03
2.00000000e-03
2.00000000e-03
2.00000000e-03
2.00000000e-03
2.00000000e-03
2.00000000e-03
2.00000000e-03
2.00000000e-03
2.00000000e-03
2.00000000e-03
2.00000000e-03
2.00000000e-03
2.00000000e-03
2.00000000e-03
2.00000000e-03
2.00000000e-03
2.00000000e-03
2.00000000e-03
2.00000000e-03
2.00000000e-03
2.00000000e-03
2.00000000e-03
2.00000000e-03
2.00000000e-03
2.00000000e-03
2.00000000e-03
2.00000000e-03
2.00000000e-03
2.00000000e-03
2.00000000e-03
2.00000000e-03
2.00000000e-03
2.00000000e-03
2.00000000e-03
2.00000000e-03
2.00000000e-03
2.00000000e-03
2.00000000e-03
2.00000000e-03
2.00000000e-03
2.00000000e-03
2.00000000e-03
2.00000000e-03
2.00000000e-03
2.00000000e-03
2.00000000e-03
2.00000000e-03
2.00000000e-03
2.00000000e-03
