# vtk DataFile Version 2.0
Particle data
ASCII
DATASET POLYDATA
POINTS 469 double
-5.10849461e-03	-3.25370527e-02	1.41179319e-02
1.07315981e-02	-1.37142478e-02	1.27059884e-02
2.25768733e-02	2.20430199e-03	6.47570087e-03
2.58027909e-02	-2.04699939e-02	1.05519697e-02
9.07778779e-03	-1.88916715e-02	2.20288371e-03
-6.33952397e-03	-2.50107769e-02	3.78624070e-03
-5.30448654e-03	-2.28170451e-02	1.77508655e-02
2.48669310e-02	-1.60937708e-02	1.79203420e-02
2.75336645e-02	1.28160580e-02	1.82336277e-02
3.52312726e-02	-1.53104038e-02	1.81640765e-02
-9.15298060e-05	-3.41233707e-02	7.00932482e-03
6.22433387e-03	-1.54202715e-02	1.74246282e-02
3.80328413e-02	9.69275077e-03	1.17584884e-02
1.57944643e-02	-7.14117604e-03	5.80785429e-03
-2.98622691e-04	-3.36640661e-02	1.41145022e-02
3.40300131e-02	-2.04139773e-02	1.05484904e-02
2.45657436e-02	-1.30533734e-02	6.20810047e-03
2.19968615e-02	1.21714317e-02	1.90989313e-03
2.39578870e-02	-1.57692474e-02	1.41471800e-02
-8.48720972e-03	-3.70449989e-02	5.67538347e-03
2.09630857e-03	-3.63674217e-02	2.27926588e-03
3.12239373e-02	9.69100483e-03	1.72853895e-02
2.81109376e-02	-2.80734620e-02	2.23709605e-03
1.49472957e-02	-7.58816810e-03	2.30322503e-03
2.00251490e-02	-1.57821560e-03	2.15477440e-03
3.41968563e-02	-1.35312736e-02	8.81189731e-03
8.89956682e-03	-3.89167660e-02	1.54009452e-02
2.45377607e-02	9.98440768e-03	1.25941623e-02
2.14137143e-02	-2.92633494e-02	1.09910108e-02
2.44180299e-02	-1.19552540e-02	1.51898399e-02
1.53828751e-02	-1.59337514e-03	9.36708049e-03
2.50426490e-02	1.92207269e-02	1.92190929e-03
1.23708776e-02	3.43381357e-05	5.38830677e-03
2.68420587e-02	5.23264145e-03	1.81118349e-02
3.91742236e-02	-5.69773153e-03	1.07542187e-02
2.40000294e-02	5.65320574e-03	1.10792710e-02
-8.10843450e-03	-3.36410200e-02	1.03657323e-02
1.67676625e-02	-3.70260771e-02	9.62563819e-03
2.70060239e-03	-1.96525464e-02	1.25981879e-02
3.98145979e-03	-2.29704031e-02	4.06598681e-03
1.78551409e-02	-3.28097405e-02	1.14534556e-02
2.02994110e-02	7.30844208e-03	1.40493024e-02
3.85318431e-02	-6.71408019e-03	2.17691826e-03
-1.48848908e-03	-3.11159045e-02	1.78774095e-02
2.99369840e-02	-3.15571089e-03	1.60346488e-02
1.46691258e-03	-3.65975094e-02	1.13855770e-02
1.32917017e-02	-1.85259829e-02	1.18554254e-02
7.12734440e-03	-3.87688177e-02	1.34704697e-02
1.92893459e-02	-2.06107585e-02	1.02460774e-02
-1.77367794e-03	-3.61836182e-02	1.80174362e-02
2.48907054e-02	-1.51353838e-02	2.25190011e-03
1.65344249e-02	-1.79986992e-02	1.00747775e-02
1.34320718e-02	-3.65796328e-02	1.23303215e-02
2.18451241e-02	-1.64262678e-02	2.48705360e-03
3.06794848e-02	-1.77078156e-02	1.12090425e-02
2.49992029e-02	-2.36785538e-02	1.50539397e-02
3.58668207e-02	-1.74605998e-02	8.91899854e-03
6.50760905e-03	-3.29700287e-02	1.79713410e-02
3.65681965e-02	-2.09156597e-05	1.46371786e-02
3.16271242e-02	-5.92135885e-03	1.50339853e-02
3.61095799e-02	1.28346044e-03	1.79378776e-02
2.94366010e-02	3.20030067e-03	1.05860033e-02
1.54153168e-02	-1.91405887e-02	1.79023265e-02
2.74962664e-02	-2.54525752e-02	9.42075185e-03
2.82446913e-02	1.09303301e-02	5.17424315e-03
3.15246424e-03	-3.51597874e-02	6.67662059e-03
3.79860134e-02	-1.12764496e-02	3.35865046e-03
1.26435785e-02	-5.03468295e-03	1.81027663e-02
3.52762520e-02	-1.04952534e-02	6.33013937e-03
3.90004461e-02	5.92510981e-03	9.41402495e-03
1.73204643e-02	-3.11753971e-02	7.02474464e-03
3.34177594e-02	1.07627772e-02	2.63875837e-03
-6.51436011e-03	-3.75488283e-02	1.82718072e-02
-5.95917638e-03	-3.73616896e-02	1.37439597e-02
1.44611963e-02	3.04865744e-03	1.09654428e-02
1.67611108e-02	-3.17382891e-02	1.77350372e-02
2.23895372e-02	-1.59524254e-02	6.47989216e-03
-7.54103185e-03	-2.95893931e-02	8.26627573e-03
3.83783780e-02	3.45369794e-03	1.83773433e-02
3.34167274e-02	-2.20232190e-02	1.81788113e-02
8.16529903e-03	-3.36188084e-02	9.15376443e-03
2.95310625e-02	2.62944079e-03	7.14473424e-03
2.66831346e-02	-1.99620663e-04	1.83332478e-03
2.90386225e-02	-4.97443623e-04	1.80154261e-02
3.34411502e-02	-1.91784662e-03	2.16170525e-03
-1.24712526e-03	-4.13644757e-02	2.52740996e-03
1.11459009e-02	-1.08612281e-02	1.60522341e-02
3.02169598e-02	-2.57918974e-02	1.09510499e-02
3.53962596e-02	3.06288196e-03	6.20826164e-03
3.20700426e-02	-1.05735042e-02	4.02569388e-03
4.34837196e-03	-3.99600204e-02	1.02398543e-02
2.66949893e-03	-3.04628585e-02	4.60836562e-03
3.29179916e-02	1.33893272e-02	6.04901504e-03
7.15127450e-03	-4.01794405e-02	2.50682087e-03
1.21414051e-02	-1.00029649e-02	9.20742986e-03
3.15212456e-02	1.81859614e-02	7.34633911e-03
2.90251083e-02	-2.82158370e-02	6.01021058e-03
3.47070070e-02	-1.12718571e-02	1.25162019e-02
2.29402398e-02	-2.92052085e-03	1.85870938e-02
5.56540336e-03	-1.82504415e-02	9.01889752e-03
3.04632870e-02	-1.15981330e-02	7.26994883e-03
3.11490322e-02	-1.07332077e-02	1.10599031e-02
2.05681931e-02	-3.08001459e-02	1.55496385e-02
3.70798744e-02	7.35835847e-03	1.72904200e-02
3.22859063e-02	-8.03946534e-03	7.98909257e-03
-6.83748854e-04	-4.25355336e-02	1.01248588e-02
2.33992609e-02	-8.36488914e-03	7.26732124e-03
2.61097779e-02	-1.16584842e-02	3.98094765e-03
3.41642251e-02	-1.11236000e-02	1.73927253e-03
6.45559054e-03	-2.31874839e-02	8.54454320e-03
3.29681125e-02	-1.80561466e-02	1.97104433e-03
3.55319005e-03	-3.63961483e-02	1.80312266e-02
1.12931189e-02	-3.14047993e-02	1.73339939e-02
2.67972677e-02	-1.95337058e-02	1.70581897e-03
3.23494562e-02	2.42326246e-03	1.39607294e-02
3.25741406e-02	-5.09659018e-03	1.94223134e-03
3.09901382e-03	-4.04317612e-02	1.48204888e-02
3.55952560e-02	-1.81974650e-02	4.98625763e-03
8.39138412e-03	-1.73603266e-02	7.52782837e-03
1.70144520e-02	5.62280379e-03	7.76026665e-03
7.58989302e-03	-3.00941203e-02	1.90369163e-03
2.40691862e-02	-9.54757633e-03	1.47407249e-02
-1.46733284e-02	-3.50484169e-02	1.58422744e-02
3.91727958e-02	1.15622942e-03	5.51326174e-03
3.58338161e-02	1.25495873e-02	1.82070306e-02
-6.95625377e-04	-4.13617691e-02	1.45391006e-02
-9.32104244e-04	-1.58898089e-02	6.53707665e-03
-2.56610206e-03	-2.08818678e-02	1.31814591e-02
2.49094377e-02	-2.56227998e-02	1.09026818e-02
1.24942174e-02	-3.03892116e-02	1.89093833e-03
2.30771727e-02	-2.34718342e-02	2.32195300e-03
3.72981553e-02	1.19807742e-02	4.53154838e-03
3.63983817e-03	-2.99493639e-02	1.79558253e-02
1.63038851e-02	3.89381819e-03	1.22591145e-02
1.79061107e-02	-1.35640888e-02	2.14249287e-03
3.93491686e-02	-9.49940085e-04	1.30368634e-02
1.66134284e-02	-2.38994017e-04	5.47443440e-03
-1.20202067e-02	-3.05402450e-02	1.24835667e-03
2.44540793e-02	-1.01295040e-02	1.09640404e-02
2.16100046e-02	-1.98702934e-02	1.58898531e-02
3.23529381e-02	-1.17058762e-03	1.62359322e-02
-2.83418261e-03	-3.96671610e-02	1.08497537e-02
1.30108168e-02	-2.40256960e-02	1.38096089e-02
1.28843887e-02	-3.73915787e-02	2.22913809e-03
-5.50998132e-03	-3.10122397e-02	5.81294287e-03
-5.01866233e-03	-3.84049143e-02	1.82070950e-03
3.05827291e-02	-2.56224109e-02	2.10408852e-03
1.24672638e-03	-2.28073543e-02	2.00820508e-03
1.91069629e-02	-1.20540354e-02	1.03927655e-02
3.11526524e-02	-1.19809510e-02	1.52312279e-02
8.10842682e-03	-2.88593736e-02	1.65303623e-02
2.83167940e-02	-2.90002198e-03	8.79152405e-03
-9.94624005e-04	-1.98738880e-02	1.02663787e-02
6.03196925e-03	-3.44023669e-02	1.16856610e-02
2.36462710e-02	-1.97589174e-02	8.91102041e-03
2.85248476e-02	-2.08326361e-02	1.37257777e-02
4.10905887e-03	-1.15466312e-02	4.49126178e-03
1.49969691e-02	-1.40841010e-02	6.23250962e-03
3.81767199e-02	5.85390381e-03	1.48885774e-02
2.80555525e-03	-1.87036907e-02	3.64010191e-03
2.72498221e-02	1.37895554e-02	7.59341928e-03
-3.90954861e-03	-1.85635255e-02	1.45306517e-03
3.78741317e-02	1.55162549e-03	8.73920584e-03
2.14051046e-02	-2.91054838e-02	1.82376824e-02
2.31817434e-02	-3.79478547e-03	2.31144827e-03
7.87592077e-03	-1.76899975e-02	1.39220854e-02
2.15423344e-02	-2.08641496e-02	5.54733265e-03
-1.50034381e-02	-3.53267476e-02	6.99792541e-03
2.74111873e-02	-2.55018545e-02	1.79650117e-02
3.15115505e-02	-2.53846309e-02	5.61596987e-03
-9.74310112e-03	-1.99866306e-02	1.69857479e-02
3.51218566e-02	-8.26135997e-03	1.00445011e-02
1.19050133e-02	-3.47809033e-02	1.78156347e-02
8.79490914e-04	-2.30361791e-02	1.67927919e-02
-9.59391810e-03	-3.44170887e-02	1.67031520e-02
5.23935191e-03	-1.20468068e-02	1.48427513e-02
3.30100951e-02	2.19979854e-02	2.41740624e-03
3.37157759e-02	8.01509373e-03	1.76360643e-02
1.03922275e-02	-1.79292488e-03	1.75163608e-02
2.51902599e-02	-1.72720113e-03	6.83322177e-03
2.17618620e-02	-2.92276092e-02	5.15902671e-03
3.11169728e-02	-2.23719754e-04	5.24120712e-03
1.96254591e-03	-3.71044668e-02	1.77974801e-02
2.30020947e-02	-3.24143335e-02	1.38409227e-02
2.78440680e-02	5.78564495e-03	1.29225392e-02
2.79879021e-03	-9.14969980e-03	1.07398152e-02
9.31262646e-03	-2.88810572e-02	2.32122913e-03
2.67545474e-02	1.38128162e-02	1.23197238e-02
-4.39903749e-03	-3.20034511e-02	1.77296084e-02
1.56458135e-02	4.61164765e-03	2.45006871e-03
3.16136464e-02	-1.83445646e-02	1.55070256e-02
2.69756873e-02	2.99902275e-03	1.53129797e-02
2.84554987e-02	-2.82463362e-02	1.51225545e-02
1.20970239e-02	-3.67173537e-02	1.75871492e-02
1.21785884e-02	-1.28496341e-02	5.11452514e-03
2.23472572e-02	-2.15504712e-02	1.31316577e-02
3.24281262e-02	7.95512081e-03	1.17311284e-02
2.73047275e-02	-1.21725579e-02	9.72110223e-03
1.62059549e-02	-2.38893079e-02	6.54279583e-03
3.50141745e-02	-1.03088272e-02	1.83558510e-02
5.51772755e-03	-3.61858556e-02	1.46782144e-02
9.45270748e-03	-3.16559507e-02	1.43059913e-02
3.01371494e-02	-2.56935997e-02	1.79615256e-02
3.58980714e-02	1.21095817e-02	1.10791704e-02
3.36264527e-02	-1.46814951e-02	1.46805667e-02
1.13878010e-02	-3.22099931e-02	7.72802122e-03
1.61759503e-02	-3.03512939e-02	1.31649411e-02
1.66036411e-02	-3.50100035e-02	5.98154512e-03
1.64903659e-02	-8.97174833e-04	1.35196145e-02
1.94805046e-02	-2.55793227e-02	1.17202177e-02
3.87212538e-02	-4.74704937e-03	1.45303986e-02
2.94883189e-02	-7.93209215e-03	1.99544267e-03
3.62189409e-02	-5.34725064e-03	1.32174888e-02
3.30932579e-02	-2.57882931e-03	1.32790174e-02
1.41239355e-02	-3.95292183e-03	1.42072286e-02
[...]
POINT_DATA 469
SCALARS Radius double 1
LOOKUP_TABLE default
2.00000000e-03
2.00000000e-03
2.00000000e-03
2.00000000e-03
2.00000000e-03
2.00000000e-03
2.00000000e-03
2.00000000e-03
2.00000000e-03
2.00000000e-03
2.00000000e-03
2.00000000e-03
2.00000000e-03
2.00000000e-03
2.00000000e-03
2.00000000e-03
2.00000000e-03
2.00000000e-03
2.00000000e-03
2.00000000e-03
2.00000000e-03
2.00000000e-03
2.00000000e-03
2.00000000e-03
2.00000000e-03
2.00000000e-03
2.00000000e-03
2.00000000e-03
2.00000000e-03
2.00000000e-03
2.00000000e-03
2.00000000e-03
2.00000000e-03
2.00000000e-03
2.00000000e-03
2.00000000e-03
2.00000000e-03
2.00000000e-03
2.00000000e-03
2.00000000e-03
2.00000000e-03
2.00000000e-03
2.00000000e-03
2.00000000e-03
2.00000000e-03
2.00000000e-03
2.00000000e-03
2.00000000e-03
2.00000000e-03
2.00000000e-03
2.00000000e-03
2.00000000e-03
2.00000000e-03
2.00000000e-03
2.00000000e-03
2.00000000e-03
2.00000000e-03
2.00000000e-03
2.00000000e-03
2.00000000e-03
2.00000000e-03
2.00000000e-03
2.00000000e-03
2.00000000e-03
2.00000000e-03
2.00000000e-03
2.00000000e-03
2.00000000e-03
2.00000000e-03
2.00000000e-03
2.00000000e-03
2.00000000e-03
2.00000000e-03
2.00000000e-03
2.00000000e-03
2.00000000e-03
2.00000000e-03
2.00000000e-03
2.00000000e-03
2.00000000e-03
2.00000000e-03
2.00000000e-03
2.00000000e-03
2.00000000e-03
2.00000000e-03
2.00000000e-03
2.00000000e-03
2.00000000e-03
2.00000000e-03
2.00000000e-03
2.00000000e-03
2.00000000e-03
2.00000000e-03
2.00000000e-03
2.00000000e-03
2.00000000e-03
2.00000000e-03
2.00000000e-03
2.00000000e-03
2.00000000e-03
2.00000000e-03
2.00000000e-03
2.00000000e-03
2.00000000e-03
2.00000000e-03
2.00000000e-03
2.00000000e-03
2.00000000e-03
2.00000000e-03
2.00000000e-03
2.00000000e-03
2.00000000e-03
2.00000000e-03
2.00000000e-03
2.00000000e-03
2.00000000e-03
2.00000000e-03
2.00000000e-03
2.00000000e-03
2.00000000e-03
2.00000000e-03
2.00000000e-03
2.00000000e-03
2.00000000e-03
2.00000000e-03
2.00000000e-03
2.00000000e-03
2.00000000e-03
2.00000000e-03
2.00000000e-03
2.00000000e-03
2.00000000e-03
2.00000000e-03
2.00000000e-03
2.00000000e-03
2.00000000e-03
2.00000000e-03
2.00000000e-03
2.00000000e-03
2.00000000e-03
2.00000000e-03
2.00000000e-03
2.00000000e-03
2.00000000e-03
2.00000000e-03
2.00000000e-03
2.00000000e-03
2.00000000e-03
2.00000000e-03
2.00000000e-03
2.00000000e-03
2.00000000e-03
2.00000000e-03
2.00000000e-03
2.00000000e-03
2.00000000e-03
2.00000000e-03
2.00000000e-03
2.00000000e-03
2.00000000e-03
2.00000000e-03
2.00000000e-03
2.00000000e-03
2.00000000e-03
2.00000000e-03
2.00000000e-03
2.00000000e-03
2.00000000e-03
2.00000000e-03
2.00000000e-03
2.00000000e-03
2.00000000e-03
2.00000000e-03
2.00000000e-03
2.00000000e-03
2.00000000e-03
2.00000000e-03
2.00000000e-03
2.00000000e-03
2.00000000e-03
2.00000000e-03
2.00000000e-03
2.00000000e-03
2.00000000e-03
2.00000000e-03
2.00000000e-03
2.00000000e-03
2.00000000e-03
2.00000000e-03
2.00000000e-03
2.00000000e-03
2.00000000e-03
2.00000000e-03
2.00000000e-03
2.00000000e-03
2.00000000e-03
2.00000000e-03
2.00000000e-03
2.00000000e-03
2.00000000e-03
2.00000000e-03
2.00000000e-03
2.00000000e-03
2.00000000e-03
2.00000000e-03
2.00000000e-03
2.00000000e-03
2.00000000e-03
2.00000000e-03
2.00000000e-03
2.00000000e-03
2.00000000e-03
2.00000000e-03
2.00000000e-03
2.00000000e-03
2.00000000e-03
2.00000000e-03
2.00000000e-03
2.00000000e-03
2.00000000e-03
2.00000000e-03
2.00000000e-03
2.00000000e-03
2.00000000e-03
2.00000000e-03
2.00000000e-03
2.00000000e-03
2.00000000e-03
2.00000000e-03
2.00000000e-03
2.00000000e-03
2.00000000e-03
2.00000000e-03
2.00000000e-03
2.00000000e-03
2.00000000e-03
2.00000000e-03
2.00000000e-03
2.00000000e-03
2.00000000e-03
2.00000000e-03
2.00000000e-03
2.00000000e-03
2.00000000e-03
2.00000000e-03
2.00000000e-03
2.00000000e-03
2.00000000e-03
2.00000000e-03
2.00000000e-03
2.00000000e-03
2.00000000e-03
2.00000000e-03
2.00000000e-03
2.00000000e-03
2.00000000e-03
2.00000000e-03
2.00000000e-03
2.00000000e-03
2.00000000e-03
2.00000000e-03
2.00000000e-03
2.00000000e-03
2.00000000e-03
2.00000000e-03
2.00000000e-03
2.00000000e-03
2.00000000e-03
2.00000000e-03
2.00000000e-03
2.00000000e-03
2.00000000e-03
2.00000000e-03
2.00000000e-03
2.00000000e-03
2.00000000e-03
2.00000000e-03
2.00000000e-03
2.00000000e-03
2.00000000e-03
2.00000000e-03
2.00000000e-03
2.00000000e-03
2.00000000e-03
2.00000000e-03
2.00000000e-03
2.00000000e-03
2.00000000e-03
2.00000000e-03
2.00000000e-03
2.00000000e-03
2.00000000e-03
2.00000000e-03
2.00000000e-03
2.00000000e-03
2.00000000e-03
2.00000000e-03
2.00000000e-03
2.00000000e-03
2.00000000e-03
2.00000000e-03
2.00000000e-03
2.00000000e-03
2.00000000e-03
2.00000000e-03
2.00000000e-03
2.00000000e-03
2.00000000e-03
2.00000000e-03
2.00000000e-03
2.00000000e-03
2.00000000e-03
2.00000000e-03
2.00000000e-03
2.00000000e-03
2.00000000e-03
2.00000000e-03
2.00000000e-03
2.00000000e-03
2.00000000e-03
2.00000000e-03
2.00000000e-03
2.00000000e-03
2.00000000e-03
2.00000000e-03
2.00000000e-03
2.00000000e-03
2.00000000e-03
2.00000000e-03
2.00000000e-03
2.00000000e-03
2.00000000e-03
2.00000000e-03
2.00000000e-03
2.00000000e-03
2.00000000e-03
2.00000000e-03
2.00000000e-03
2.00000000e-03
2.00000000e-03
2.00000000e-03
2.00000000e-03
2.00000000e-03
2.00000000e-03
2.00000000e-03
2.00000000e-03
2.00000000e-03
2.00000000e-03
2.00000000e-03
2.00000000e-03
2.00000000e-03
2.00000000e-03
2.00000000e-03
2.00000000e-03
2.00000000e-03
2.00000000e-03
2.00000000e-03
2.00000000e-03
2.00000000e-03
2.00000000e-03
2.00000000e-03
2.00000000e-03
2.00000000e-03
2.00000000e-03
2.00000000e-03
2.00000000e-03
2.00000000e-03
2.00000000e-03
2.00000000e-03
2.00000000e-03
2.00000000e-03
2.00000000e-03
2.00000000e-03
2.00000000e-03
2.00000000e-03
2.00000000e-03
2.00000000e-03
2.00000000e-03
2.00000000e-03
2.00000000e-03
2.00000000e-03
2.00000000e-03
2.00000000e-03
2.00000000e-03
2.00000000e-03
2.00000000e-03
2.00000000e-03
2.00000000e-03
2.00000000e-03
2.00000000e-03
2.00000000e-03
2.00000000e-03
2.00000000e-03
2.00000000e-03
2.00000000e-03
2.00000000e-03
2.00000000e-03
2.00000000e-03
2.00000000e-03
2.00000000e-03
2.00000000e-03
2.00000000e-03
2.00000000e-03
2.00000000e-03
2.00000000e-03
2.00000000e-03
2.00000000e-03
2.00000000e-03
2.00000000e-03
2.00000000e-03
2.00000000e-03
2.00000000e-03
2.00000000e-03
2.00000000e-03
2.00000000e-03
2.00000000e-03
2.00000000e-03
2.00000000e-03
2.00000000e-03
2.00000000e-03
2.00000000e-03
2.00000000e-03
2.00000000e-03
2.00000000e-03
2.00000000e-03
2.00000000e-03
2.00000000e-03
2.00000000e-03
2.00000000e-03
2.00000000e-03
2.00000000e-03
2.00000000e-03
2.00000000e-03
2.00000000e-03
2.00000000e-03
2.00000000e-03
2.00000000e-03
2.00000000e-03
2.00000000e-03
2.00000000e-03
2.00000000e-03
2.00000000e-03
2.00000000e-03
2.00000000e-03
2.00000000e-03
2.00000000e-03
2.00000000e-03
2.00000000e-03
2.00000000e-03
2.00000000e-03
2.00000000e-03
2.00000000e-03
2.00000000e-03
2.00000000e-03
2.00000000e-03
2.00000000e-03
2.00000000e-03
2.00000000e-03
2.00000000e-03
2.00000000e-03
2.00000000e-03
2.00000000e-03
2.00000000e-03
2.00000000e-03
2.00000000e-03
2.00000000e-03
2.00000000e-03
2.00000000e-03
2.00000000e-03
