# vtk DataFile Version 2.0
Particle data
ASCII
DATASET POLYDATA
POINTS 469 double
3.75802385e-02	-4.17184774e-03	1.41931063e-02
3.00647908e-02	-2.97546364e-03	1.29903880e-02
2.25874443e-02	-3.32291494e-02	1.45375153e-02
1.70715733e-02	6.98630509e-04	7.61867126e-03
2.92471496e-02	6.99175656e-04	2.58872947e-03
3.36690438e-02	-1.40524888e-02	2.01657133e-03
3.35695627e-02	-2.07637311e-02	1.81884667e-02
4.65083216e-03	-2.37792033e-02	1.74556243e-02
1.21390002e-02	-3.66671389e-02	1.67689784e-02
-3.92369950e-04	-2.02058191e-02	1.45143944e-02
3.63934632e-02	-4.66742225e-03	7.09420662e-03
2.96457407e-02	-9.80739824e-03	1.82007741e-02
-2.00845018e-03	-3.80589850e-02	7.82772724e-03
2.40686690e-02	-1.14398985e-02	4.99771649e-03
3.63341414e-02	1.57201937e-03	1.37695817e-02
1.43130998e-02	2.79812688e-03	9.99707344e-03
1.60430525e-02	-1.62751020e-02	7.62206224e-03
2.80471886e-02	-1.75171997e-02	2.46739687e-03
1.61186459e-02	-1.37375448e-02	1.53076070e-02
3.73986265e-02	-1.18978431e-02	4.96961985e-03
3.54390833e-02	-1.80794490e-04	1.99826565e-03
1.58417520e-02	-3.34651042e-02	1.81022381e-02
2.71852847e-02	2.19838108e-02	1.77204422e-03
2.36266564e-02	-2.92915821e-02	5.48859647e-03
2.63928849e-02	-2.41101384e-02	5.40166950e-03
-1.37832949e-02	-3.08369168e-02	1.50958667e-02
3.87448828e-02	9.01252879e-03	1.41478472e-02
2.49255790e-02	-2.56213490e-02	1.76830022e-02
2.71264389e-02	1.30954459e-02	1.21424784e-02
5.00012448e-04	-3.21661177e-02	1.86444111e-02
2.93479885e-02	-9.46967656e-03	8.63721655e-03
1.24343814e-02	-3.84128596e-02	9.30484477e-03
2.72399939e-02	-1.53375146e-02	8.37820948e-03
1.61685142e-02	-2.63289443e-02	1.52615633e-02
-2.69560344e-03	-3.56758558e-02	8.09305040e-03
1.99722775e-02	-2.18659562e-02	1.47918870e-02
3.96315671e-02	-7.80677193e-03	9.22656621e-03
3.35790491e-02	1.32255900e-02	1.10518505e-02
3.15114535e-02	-1.28980964e-02	1.37431994e-02
3.19148547e-02	-7.48692947e-03	4.44983753e-03
3.08027917e-02	1.44391856e-02	1.16842517e-02
2.37503477e-02	-2.64612775e-02	1.59830813e-02
9.04400031e-04	-2.77562130e-02	4.34426924e-03
3.69365742e-02	-6.20855794e-03	1.73064817e-02
1.35731778e-02	-2.29101813e-02	1.42997641e-02
3.60924714e-02	2.92477786e-03	1.11050220e-02
2.47214078e-02	-4.48597998e-03	1.26953126e-02
3.42434294e-02	7.46810047e-03	1.32828951e-02
1.76414513e-02	-1.22554916e-02	1.26836567e-02
3.82175903e-02	-7.20798610e-03	1.78035765e-02
1.61100503e-02	-3.70224882e-03	2.15079855e-03
2.50706693e-02	-1.09508611e-03	9.86848829e-03
3.51707475e-02	6.71415690e-03	1.26601199e-02
1.26266618e-02	-1.53328079e-02	2.18581579e-03
6.11969454e-03	-1.69754829e-02	7.18283498e-03
1.33093713e-02	-7.83642011e-04	1.56188315e-02
5.57169231e-03	-1.52853965e-02	7.70152411e-03
3.38837985e-02	5.28664403e-03	1.82450745e-02
5.84521045e-03	-3.08244122e-02	1.46583589e-02
1.67442008e-03	-3.08853269e-02	1.44949345e-02
6.71217089e-03	-3.40646476e-02	1.23913487e-02
1.80110251e-02	-2.50641458e-02	1.16146748e-02
1.43886929e-02	-1.36264545e-02	1.75975241e-02
2.06387828e-02	1.51700714e-02	8.85841787e-03
2.14895363e-02	-2.51806608e-02	3.88994751e-03
3.39845811e-02	2.60314509e-03	5.88352644e-03
-4.08530179e-03	-2.66973016e-02	6.87607290e-03
2.78420512e-02	-1.73927835e-02	1.55156710e-02
-2.95393975e-04	-2.96760695e-02	7.30702073e-03
3.26553195e-03	-3.82078706e-02	3.08985635e-03
3.15677032e-02	1.64232818e-02	8.32429248e-03
1.09396486e-02	-3.69656641e-02	5.33647179e-03
3.85692150e-02	-7.70157750e-03	1.74001172e-02
3.77042648e-02	-7.85810742e-03	1.35717480e-02
2.25676106e-02	-3.36128102e-02	2.45659850e-03
2.80907916e-02	1.59559629e-02	1.72628067e-02
2.96454993e-03	-3.46254613e-02	5.87494351e-03
3.74451469e-02	-1.54750527e-02	5.99371138e-03
-2.19129271e-03	-3.95596834e-02	1.84952729e-02
1.57173122e-02	8.73995816e-03	1.74544260e-02
3.17966709e-02	5.61160653e-03	1.04326390e-02
2.00244194e-02	-1.16151237e-02	9.84803673e-03
1.03176336e-02	-2.60054519e-02	6.97303373e-03
1.42415025e-02	-2.54915155e-02	1.80528702e-02
8.98891019e-03	-3.44869733e-02	3.12611428e-03
3.91305321e-02	-1.24995640e-03	2.08709145e-03
2.76126805e-02	-2.71782162e-03	1.73950215e-02
2.77552148e-02	1.90310071e-02	1.07411514e-02
1.85736628e-02	-2.63606088e-02	6.52159526e-03
6.69763380e-03	-2.19224911e-02	5.93839088e-03
4.01077391e-02	6.14749337e-03	1.09944022e-02
3.61323757e-02	-8.63081856e-05	4.61718523e-03
1.91216634e-02	-3.41279177e-02	9.26787400e-03
3.88273725e-02	1.04483962e-02	1.20379642e-03
2.40685137e-02	-1.84349166e-02	1.11092785e-02
8.81038675e-03	-3.72559927e-02	1.80256716e-02
3.02753668e-02	2.63252969e-02	8.86927256e-03
-4.69078300e-03	-3.19946378e-02	1.24979766e-02
1.86055352e-02	-2.64167701e-02	1.00469703e-02
3.04068706e-02	-1.48729186e-02	1.03880197e-02
-7.20235098e-04	-3.14109195e-02	1.02060649e-02
1.40253598e-02	-1.10497993e-02	1.80013073e-02
3.05533872e-02	1.76841880e-02	1.72197793e-02
1.11128353e-02	-3.34142359e-02	1.58899010e-02
1.38273832e-04	-3.66246609e-02	1.64281438e-02
3.96983026e-02	2.30536796e-03	1.23511901e-02
1.92205195e-02	-1.92581769e-02	7.31576146e-03
3.95498145e-03	-3.14028202e-02	9.50187640e-03
4.48763319e-03	-1.76912339e-02	2.90744955e-03
3.20860419e-02	-4.27967726e-03	9.37397910e-03
7.29301247e-03	-8.74903436e-03	7.25314845e-03
3.64323033e-02	5.23771861e-03	1.84635505e-02
2.98469090e-02	1.12199041e-02	1.74613041e-02
1.24235624e-02	-7.90969192e-03	5.33261478e-03
3.76169588e-03	-3.84396222e-02	1.78075406e-02
-5.44190180e-03	-3.51205241e-02	1.81811187e-03
3.91219898e-02	2.79535401e-03	1.40672820e-02
7.91870816e-03	1.07015184e-03	7.52781722e-03
2.67182988e-02	-4.13194900e-03	7.37380922e-03
3.08366574e-02	-2.56799702e-02	2.52039435e-03
3.42835877e-02	6.51282216e-03	2.60302262e-03
1.46894338e-02	-2.92664851e-02	1.18658334e-02
3.55663103e-02	-1.78213149e-02	1.64651344e-02
-7.93414987e-04	-3.70001770e-02	2.07006582e-03
1.56255807e-02	-3.75666723e-02	1.78986952e-02
3.97703344e-02	-2.65024874e-03	1.37998649e-02
3.40600150e-02	-1.73260332e-02	5.41479793e-03
3.47967999e-02	-1.43460105e-02	1.19150594e-02
1.57052707e-02	3.95475429e-03	1.13589418e-02
2.77057460e-02	9.11960144e-03	2.15517689e-03
2.07880059e-02	1.08590948e-02	1.91970010e-03
6.39367608e-03	-3.88419088e-02	9.85601351e-03
3.26664475e-02	-1.01134276e-03	1.97201657e-02
3.10797083e-02	-2.35861626e-02	7.61722983e-03
2.19521707e-02	-1.39992740e-02	6.12238256e-03
1.35158594e-04	-3.69030409e-02	1.04147470e-02
2.72855903e-02	-9.80546719e-03	7.78954124e-03
3.60673424e-02	-1.75004206e-02	2.64221082e-03
9.28154734e-03	-3.68470232e-02	1.22791638e-02
1.96857007e-02	-1.33185039e-02	1.72553714e-02
-2.61039102e-03	-3.49879588e-02	1.82596831e-02
3.88635754e-02	-4.70144854e-03	9.23473251e-03
2.22534915e-02	-1.75876361e-04	1.42807384e-02
3.68224259e-02	1.07028097e-02	1.84292990e-03
3.39339780e-02	-1.21424008e-02	6.15390242e-03
3.88154698e-02	-8.64637760e-03	3.04518827e-03
2.53018599e-02	2.07235715e-02	1.71968731e-03
3.33265353e-02	-6.17626627e-03	1.88471572e-03
2.12240550e-02	-1.49361572e-02	1.03594543e-02
-8.25936276e-03	-3.60075208e-02	1.58839906e-02
3.12501329e-02	6.27791327e-03	1.80379144e-02
1.49222883e-02	-2.39376690e-02	9.37059827e-03
3.30166119e-02	-1.35114252e-02	9.77953832e-03
3.21534989e-02	5.88985494e-03	1.24352311e-02
1.52502522e-02	-8.82396024e-03	5.20750406e-03
3.07033040e-03	-1.07422680e-02	1.34713555e-02
3.19443139e-02	-1.84263760e-02	1.62159749e-03
2.53329424e-02	4.94995070e-04	5.78785531e-03
2.26104444e-03	-3.99914304e-02	1.80281875e-02
3.04705680e-02	-8.16451016e-03	4.09525880e-03
2.75224916e-02	-2.61458952e-02	9.48699312e-03
3.78216969e-02	-1.45761985e-02	2.57993175e-03
9.47250698e-03	-2.78996718e-02	7.58770058e-03
3.11303059e-02	1.91246086e-02	1.88868539e-02
1.18103767e-02	-2.30908683e-02	5.60860805e-03
3.00485650e-02	-8.35412512e-03	1.29803132e-02
1.08036955e-02	-1.68057729e-02	6.81886799e-03
3.44522836e-02	-2.07112758e-02	8.34071255e-03
1.88450897e-02	1.37950932e-02	1.79396973e-02
2.07048437e-02	1.63031607e-02	6.84346967e-03
3.11596190e-02	-2.36831774e-02	1.59023759e-02
-1.51796775e-02	-3.65953720e-02	2.74362827e-03
3.53357748e-02	1.14408028e-02	1.78157530e-02
3.12243018e-02	-3.59817834e-03	1.67526348e-02
3.81522932e-02	-1.33164202e-02	1.71804919e-02
2.20168929e-02	-3.14765206e-02	1.03077491e-02
2.01889230e-02	-2.26304235e-02	1.82294549e-03
7.89753540e-03	-3.80708505e-02	9.84521499e-03
1.99817395e-02	-3.13696873e-02	1.56297301e-02
1.63449929e-02	-3.32387829e-02	5.20650532e-03
2.81166867e-02	1.63749852e-02	4.28822891e-03
2.21933361e-02	-2.14255447e-02	5.79934229e-03
3.92994199e-02	1.79261742e-03	1.75410727e-02
3.25132206e-02	2.03153566e-02	1.64544134e-02
2.12229703e-02	-2.34239855e-02	1.83966305e-02
2.98729848e-02	-1.99798003e-02	1.00270321e-02
2.78467310e-02	7.21182769e-03	1.69493532e-03
2.42872096e-02	-2.66064718e-02	1.18171218e-02
3.54887792e-02	-8.92612787e-03	1.80991615e-02
2.70427980e-02	-2.22686933e-02	2.99045777e-03
9.54833601e-03	-1.02963514e-02	1.22943338e-02
1.38630559e-02	-1.96753554e-02	1.74541172e-02
3.17401359e-02	2.30388574e-02	1.48883008e-02
3.66243132e-02	1.17395565e-02	1.91306540e-02
2.70245840e-02	-1.11103748e-03	2.68728212e-03
1.19616638e-02	-9.01018988e-03	1.24206312e-02
1.70441589e-02	-2.93419465e-02	1.38014120e-02
1.57947649e-02	-2.20864895e-02	1.05745075e-02
2.31328919e-02	-3.55857285e-03	7.48228749e-03
-1.83588426e-03	-2.64580330e-02	1.50837165e-02
3.65280345e-02	5.46425911e-03	1.37843162e-02
3.16282201e-02	9.21612490e-03	1.58436579e-02
2.48679824e-02	1.75589839e-02	1.85206777e-02
1.36598038e-02	-3.39679730e-02	1.38543846e-02
-9.89482081e-04	-2.20617080e-02	1.79291028e-02
3.00990206e-02	1.04217903e-02	8.03731182e-03
2.77719848e-02	1.08642733e-02	1.43047037e-02
3.45288338e-02	1.28117772e-02	5.88915585e-03
2.68067071e-02	-1.10816395e-02	1.52877840e-02
2.19124330e-02	3.42456488e-03	1.33363309e-02
4.60930579e-04	-3.30963900e-02	1.45561006e-02
7.96836027e-03	-1.87037899e-02	1.51197015e-03
-6.96724628e-03	-3.83935385e-02	1.45578652e-02
1.28961806e-02	-2.93522545e-02	1.58336223e-02
2.16409842e-02	-8.48383479e-03	1.67618292e-02
2.17562268e-02	-1.62772546e-02	3.16005465e-03
[...]
POINT_DATA 469
SCALARS Radius double 1
LOOKUP_TABLE default
2.00000000e-03
2.00000000e-03
2.00000000e-03
2.00000000e-03
2.00000000e-03
2.00000000e-03
2.00000000e-03
2.00000000e-03
2.00000000e-03
2.00000000e-03
2.00000000e-03
2.00000000e-03
2.00000000e-03
2.00000000e-03
2.00000000e-03
2.00000000e-03
2.00000000e-03
2.00000000e-03
2.00000000e-03
2.00000000e-03
2.00000000e-03
2.00000000e-03
2.00000000e-03
2.00000000e-03
2.00000000e-03
2.00000000e-03
2.00000000e-03
2.00000000e-03
2.00000000e-03
2.00000000e-03
2.00000000e-03
2.00000000e-03
2.00000000e-03
2.00000000e-03
2.00000000e-03
2.00000000e-03
2.00000000e-03
2.00000000e-03
2.00000000e-03
2.00000000e-03
2.00000000e-03
2.00000000e-03
2.00000000e-03
2.00000000e-03
2.00000000e-03
2.00000000e-03
2.00000000e-03
2.00000000e-03
2.00000000e-03
2.00000000e-03
2.00000000e-03
2.00000000e-03
2.00000000e-03
2.00000000e-03
2.00000000e-03
2.00000000e-03
2.00000000e-03
2.00000000e-03
2.00000000e-03
2.00000000e-03
2.00000000e-03
2.00000000e-03
2.00000000e-03
2.00000000e-03
2.00000000e-03
2.00000000e-03
2.00000000e-03
2.00000000e-03
2.00000000e-03
2.00000000e-03
2.00000000e-03
2.00000000e-03
2.00000000e-03
2.00000000e-03
2.00000000e-03
2.00000000e-03
2.00000000e-03
2.00000000e-03
2.00000000e-03
2.00000000e-03
2.00000000e-03
2.00000000e-03
2.00000000e-03
2.00000000e-03
2.00000000e-03
2.00000000e-03
2.00000000e-03
2.00000000e-03
2.00000000e-03
2.00000000e-03
2.00000000e-03
2.00000000e-03
2.00000000e-03
2.00000000e-03
2.00000000e-03
2.00000000e-03
2.00000000e-03
2.00000000e-03
2.00000000e-03
2.00000000e-03
2.00000000e-03
2.00000000e-03
2.00000000e-03
2.00000000e-03
2.00000000e-03
2.00000000e-03
2.00000000e-03
2.00000000e-03
2.00000000e-03
2.00000000e-03
2.00000000e-03
2.00000000e-03
2.00000000e-03
2.00000000e-03
2.00000000e-03
2.00000000e-03
2.00000000e-03
2.00000000e-03
2.00000000e-03
2.00000000e-03
2.00000000e-03
2.00000000e-03
2.00000000e-03
2.00000000e-03
2.00000000e-03
2.00000000e-03
2.00000000e-03
2.00000000e-03
2.00000000e-03
2.00000000e-03
2.00000000e-03
2.00000000e-03
2.00000000e-03
2.00000000e-03
2.00000000e-03
2.00000000e-03
2.00000000e-03
2.00000000e-03
2.00000000e-03
2.00000000e-03
2.00000000e-03
2.00000000e-03
2.00000000e-03
2.00000000e-03
2.00000000e-03
2.00000000e-03
2.00000000e-03
2.00000000e-03
2.00000000e-03
2.00000000e-03
2.00000000e-03
2.00000000e-03
2.00000000e-03
2.00000000e-03
2.00000000e-03
2.00000000e-03
2.00000000e-03
2.00000000e-03
2.00000000e-03
2.00000000e-03
2.00000000e-03
2.00000000e-03
2.00000000e-03
2.00000000e-03
2.00000000e-03
2.00000000e-03
2.00000000e-03
2.00000000e-03
2.00000000e-03
2.00000000e-03
2.00000000e-03
2.00000000e-03
2.00000000e-03
2.00000000e-03
2.00000000e-03
2.00000000e-03
2.00000000e-03
2.00000000e-03
2.00000000e-03
2.00000000e-03
2.00000000e-03
2.00000000e-03
2.00000000e-03
2.00000000e-03
2.00000000e-03
2.00000000e-03
2.00000000e-03
2.00000000e-03
2.00000000e-03
2.00000000e-03
2.00000000e-03
2.00000000e-03
2.00000000e-03
2.00000000e-03
2.00000000e-03
2.00000000e-03
2.00000000e-03
2.00000000e-03
2.00000000e-03
2.00000000e-03
2.00000000e-03
2.00000000e-03
2.00000000e-03
2.00000000e-03
2.00000000e-03
2.00000000e-03
2.00000000e-03
2.00000000e-03
2.00000000e-03
2.00000000e-03
2.00000000e-03
2.00000000e-03
2.00000000e-03
2.00000000e-03
2.00000000e-03
2.00000000e-03
2.00000000e-03
2.00000000e-03
2.00000000e-03
2.00000000e-03
2.00000000e-03
2.00000000e-03
2.00000000e-03
2.00000000e-03
2.00000000e-03
2.00000000e-03
2.00000000e-03
2.00000000e-03
2.00000000e-03
2.00000000e-03
2.00000000e-03
2.00000000e-03
2.00000000e-03
2.00000000e-03
2.00000000e-03
2.00000000e-03
2.00000000e-03
2.00000000e-03
2.00000000e-03
2.00000000e-03
2.00000000e-03
2.00000000e-03
2.00000000e-03
2.00000000e-03
2.00000000e-03
2.00000000e-03
2.00000000e-03
2.00000000e-03
2.00000000e-03
2.00000000e-03
2.00000000e-03
2.00000000e-03
2.00000000e-03
2.00000000e-03
2.00000000e-03
2.00000000e-03
2.00000000e-03
2.00000000e-03
2.00000000e-03
2.00000000e-03
2.00000000e-03
2.00000000e-03
2.00000000e-03
2.00000000e-03
2.00000000e-03
2.00000000e-03
2.00000000e-03
2.00000000e-03
2.00000000e-03
2.00000000e-03
2.00000000e-03
2.00000000e-03
2.00000000e-03
2.00000000e-03
2.00000000e-03
2.00000000e-03
2.00000000e-03
2.00000000e-03
2.00000000e-03
2.00000000e-03
2.00000000e-03
2.00000000e-03
2.00000000e-03
2.00000000e-03
2.00000000e-03
2.00000000e-03
2.00000000e-03
2.00000000e-03
2.00000000e-03
2.00000000e-03
2.00000000e-03
2.00000000e-03
2.00000000e-03
2.00000000e-03
2.00000000e-03
2.00000000e-03
2.00000000e-03
2.00000000e-03
2.00000000e-03
2.00000000e-03
2.00000000e-03
2.00000000e-03
2.00000000e-03
2.00000000e-03
2.00000000e-03
2.00000000e-03
2.00000000e-03
2.00000000e-03
2.00000000e-03
2.00000000e-03
2.00000000e-03
2.00000000e-03
2.00000000e-03
2.00000000e-03
2.00000000e-03
2.00000000e-03
2.00000000e-03
2.00000000e-03
2.00000000e-03
2.00000000e-03
2.00000000e-03
2.00000000e-03
2.00000000e-03
2.00000000e-03
2.00000000e-03
2.00000000e-03
2.00000000e-03
2.00000000e-03
2.00000000e-03
2.00000000e-03
2.00000000e-03
2.00000000e-03
2.00000000e-03
2.00000000e-03
2.00000000e-03
2.00000000e-03
2.00000000e-03
2.00000000e-03
2.00000000e-03
2.00000000e-03
2.00000000e-03
2.00000000e-03
2.00000000e-03
2.00000000e-03
2.00000000e-03
2.00000000e-03
2.00000000e-03
2.00000000e-03
2.00000000e-03
2.00000000e-03
2.00000000e-03
2.00000000e-03
2.00000000e-03
2.00000000e-03
2.00000000e-03
2.00000000e-03
2.00000000e-03
2.00000000e-03
2.00000000e-03
2.00000000e-03
2.00000000e-03
2.00000000e-03
2.00000000e-03
2.00000000e-03
2.00000000e-03
2.00000000e-03
2.00000000e-03
2.00000000e-03
2.00000000e-03
2.00000000e-03
2.00000000e-03
2.00000000e-03
2.00000000e-03
2.00000000e-03
2.00000000e-03
2.00000000e-03
2.00000000e-03
2.00000000e-03
2.00000000e-03
2.00000000e-03
2.00000000e-03
2.00000000e-03
2.00000000e-03
2.00000000e-03
2.00000000e-03
2.00000000e-03
2.00000000e-03
2.00000000e-03
2.00000000e-03
2.00000000e-03
2.00000000e-03
2.00000000e-03
2.00000000e-03
2.00000000e-03
2.00000000e-03
2.00000000e-03
2.00000000e-03
2.00000000e-03
2.00000000e-03
2.00000000e-03
2.00000000e-03
2.00000000e-03
2.00000000e-03
2.00000000e-03
2.00000000e-03
2.00000000e-03
2.00000000e-03
2.00000000e-03
2.00000000e-03
2.00000000e-03
2.00000000e-03
2.00000000e-03
2.00000000e-03
2.00000000e-03
2.00000000e-03
2.00000000e-03
2.00000000e-03
2.00000000e-03
2.00000000e-03
2.00000000e-03
2.00000000e-03
2.00000000e-03
2.00000000e-03
2.00000000e-03
2.00000000e-03
2.00000000e-03
2.00000000e-03
2.00000000e-03
2.00000000e-03
2.00000000e-03
2.00000000e-03
2.00000000e-03
2.00000000e-03
2.00000000e-03
2.00000000e-03
2.00000000e-03
2.00000000e-03
2.00000000e-03
2.00000000e-03
2.00000000e-03
2.00000000e-03
2.00000000e-03
2.00000000e-03
2.00000000e-03
2.00000000e-03
2.00000000e-03
2.00000000e-03
2.00000000e-03
2.00000000e-03
2.00000000e-03
2.00000000e-03
2.00000000e-03
2.00000000e-03
2.00000000e-03
2.00000000e-03
2.00000000e-03
2.00000000e-03
2.00000000e-03
2.00000000e-03
2.00000000e-03
2.00000000e-03
2.00000000e-03
2.00000000e-03
2.00000000e-03
2.00000000e-03
2.00000000e-03
2.00000000e-03
2.00000000e-03
2.00000000e-03
