# vtk DataFile Version 2.0
Particle data
ASCII
DATASET POLYDATA
POINTS 469 double
8.05838613e-03	-3.89726721e-02	1.53206589e-02
1.16260732e-02	-2.67703446e-02	1.26036543e-02
-7.95576070e-03	-3.17366982e-02	1.20516910e-02
3.25652197e-02	-6.34129005e-03	8.51112102e-03
1.92692478e-02	-2.18414962e-02	1.84765912e-03
3.36491068e-03	-3.52646268e-02	2.84042575e-03
1.93485895e-04	-3.93739903e-02	1.85880550e-02
2.92733674e-02	-3.74076134e-03	1.78033683e-02
3.18551400e-03	-1.23254328e-02	1.79087163e-02
3.69900749e-02	8.81567197e-04	1.81128390e-02
1.47670481e-02	-3.56268317e-02	7.54909670e-03
6.32856635e-03	-2.88748602e-02	1.81083280e-02
2.68272158e-02	1.03893383e-02	1.00678191e-02
1.12651381e-02	-2.00236632e-02	5.68462643e-03
1.51687971e-02	-3.29893915e-02	1.44990161e-02
3.96223031e-02	-4.26620581e-03	1.12596966e-02
2.50555566e-02	-6.92965653e-03	6.49312848e-03
6.69348455e-03	-2.20545641e-02	2.22898955e-03
2.67498090e-02	-6.59322752e-03	1.33352144e-02
9.99696488e-03	-3.62477066e-02	4.85084623e-03
1.88461329e-02	-3.37498018e-02	2.30079691e-03
1.20276687e-02	-1.03320403e-03	1.71344502e-02
3.64604283e-02	-1.33639524e-02	2.17364627e-03
-2.36930659e-03	-3.02359575e-02	5.97129396e-03
3.60214301e-03	-2.41224305e-02	4.29483881e-03
3.48975559e-02	-8.13777735e-04	9.16275177e-03
2.76199440e-02	-2.87764574e-02	1.48949230e-02
3.18617647e-03	-2.49768539e-02	1.58303145e-02
3.29283412e-02	-1.44899749e-02	1.15158306e-02
2.60471553e-02	-2.05095098e-03	1.50612652e-02
9.07099276e-03	-2.94821174e-02	9.13028833e-03
-1.04600222e-02	-2.83773375e-02	7.20145052e-03
3.73017773e-03	-2.77144578e-02	7.64458343e-03
1.30269283e-02	-5.60706503e-03	1.84546986e-02
3.79551193e-02	1.17668831e-02	1.05970373e-02
9.91669997e-03	-1.96264560e-02	1.16695561e-02
7.40762044e-03	-3.96791524e-02	9.50073187e-03
3.41640382e-02	-2.22695871e-02	9.98638022e-03
5.84567709e-03	-3.08210364e-02	1.32759023e-02
1.24127309e-02	-3.07544168e-02	5.00025620e-03
3.20718071e-02	-1.90982300e-02	1.19923409e-02
-1.17622860e-03	-2.83160769e-02	1.68651656e-02
3.69273096e-02	8.91641541e-03	2.56326621e-03
1.04977490e-02	-3.58932253e-02	1.80398635e-02
2.44410389e-02	3.38234522e-03	1.36586059e-02
1.90598720e-02	-3.16021507e-02	1.07845621e-02
1.78614828e-02	-2.02875874e-02	9.85397742e-03
2.49317695e-02	-2.82515178e-02	1.31501093e-02
2.53776956e-02	-1.06671023e-02	1.00193203e-02
1.43776422e-02	-3.71572986e-02	1.82476451e-02
2.85877590e-02	-3.89250399e-03	1.60014526e-03
1.92349176e-02	-1.89322689e-02	8.16826066e-03
3.17658613e-02	-2.25436565e-02	1.27046991e-02
2.69480172e-02	-5.78487827e-03	2.72597929e-03
3.39393293e-02	-3.67571427e-03	1.16910980e-02
3.33187540e-02	-8.05294292e-03	1.49023846e-02
3.93122744e-02	-5.58924059e-04	9.21556499e-03
2.30197497e-02	-2.41203494e-02	1.77736492e-02
3.15952491e-02	1.17363115e-02	1.47503831e-02
2.87794058e-02	5.48144496e-03	1.49141865e-02
2.89686516e-02	1.20068083e-02	1.80953555e-02
1.80447134e-02	-6.67356959e-03	1.19947645e-02
2.11419959e-02	-1.04667507e-02	1.83489319e-02
3.60089854e-02	-9.15151451e-03	9.05761086e-03
1.12421932e-02	-1.03888372e-02	5.59970763e-03
1.79402414e-02	-3.12747711e-02	5.22387672e-03
3.78411465e-02	4.30491731e-03	3.66728319e-03
6.74406746e-03	-2.46069643e-02	1.45709940e-02
3.46199838e-02	2.50399771e-03	6.13526754e-03
2.60032092e-02	1.13664380e-02	8.72953516e-03
3.15644816e-02	-1.77574828e-02	7.77539887e-03
1.12937665e-02	1.98732206e-03	1.86018778e-03
1.18444713e-02	-3.88309558e-02	1.80167677e-02
1.45273933e-02	-3.49188908e-02	1.35727573e-02
-1.14457985e-02	-3.36466703e-02	4.20717985e-03
2.98624543e-02	-1.83779285e-02	1.77279417e-02
2.36779175e-02	-8.73539996e-03	4.87263161e-03
3.74064283e-03	-3.82605860e-02	6.78948769e-03
2.91032329e-02	1.86652381e-02	1.83014502e-02
3.95324556e-02	-6.00607709e-03	1.80276233e-02
2.57897751e-02	-2.29381148e-02	8.95723785e-03
2.20772275e-02	-7.62929651e-03	8.52084506e-03
2.09700089e-02	-2.13467714e-03	5.77604105e-03
1.80728096e-02	-3.09830362e-03	1.81112815e-02
2.80010964e-02	1.05006653e-02	2.46098846e-03
1.98936097e-02	-3.73787021e-02	2.82657184e-03
1.27303403e-02	-2.47223685e-02	1.72208074e-02
3.76925998e-02	-1.03144822e-02	1.06033153e-02
2.20487144e-02	5.50806475e-03	6.37904596e-03
3.15763674e-02	4.60830955e-03	3.60721414e-03
2.35390256e-02	-3.17941951e-02	9.49649762e-03
1.44840798e-02	-3.54728463e-02	4.70642586e-03
-4.54178385e-04	-1.76088012e-02	9.58953705e-03
2.46052544e-02	-3.29837162e-02	1.79160254e-03
3.73446278e-03	-2.76613784e-02	1.06912806e-02
-5.96519925e-03	-2.49129763e-02	1.02837158e-02
3.88855145e-02	-1.05249468e-02	6.37436675e-03
3.46203190e-02	1.96788647e-03	1.27348477e-02
7.46065942e-03	-1.53667226e-02	1.86419592e-02
5.86926319e-03	-3.13815712e-02	8.91079377e-03
3.15439720e-02	4.08956143e-04	6.62758142e-03
2.98160038e-02	1.59259109e-03	1.13542980e-02
3.38102164e-02	-1.65138346e-02	1.55688729e-02
2.01668433e-02	8.22220769e-03	1.81399330e-02
3.09158686e-02	5.69670447e-03	8.22220324e-03
1.86397339e-02	-4.02461851e-02	1.01854131e-02
1.62286806e-02	-1.04312585e-02	9.79709640e-03
2.69017986e-02	-3.35205569e-03	4.31085109e-03
3.51172085e-02	4.68172659e-03	2.03435750e-03
1.24503617e-02	-2.88741568e-02	8.55282590e-03
3.65829933e-02	-1.44094389e-03	2.18991077e-03
2.17476923e-02	-3.19154851e-02	1.81137218e-02
2.64372568e-02	-2.00034766e-02	1.77933165e-02
3.31282307e-02	-4.44176482e-03	1.77669775e-03
2.58950078e-02	9.22909915e-03	1.36970245e-02
2.95040739e-02	7.13395130e-03	1.83036035e-03
2.06001778e-02	-3.63151979e-02	1.48229795e-02
3.90838232e-02	-1.82574717e-03	5.51593675e-03
1.35985040e-02	-2.29910074e-02	5.42830012e-03
-4.48152667e-03	-3.47823855e-02	2.64093713e-03
2.14811726e-02	-2.64847235e-02	1.96899075e-03
2.12543712e-02	-1.68935329e-03	1.45613452e-02
5.33916924e-03	-3.74393368e-02	1.66826562e-02
3.33396359e-02	1.67876298e-02	6.31883874e-03
1.24248938e-02	2.70419593e-03	1.78458856e-02
1.87982433e-02	-3.71408669e-02	1.52216912e-02
-3.19613717e-05	-3.51135738e-02	5.40060914e-03
3.67459627e-03	-3.57736686e-02	1.21586814e-02
3.32603542e-02	-1.12851638e-02	1.04640955e-02
2.58795057e-02	-1.94683265e-02	1.91589729e-03
3.13785183e-02	-9.21992053e-03	1.96068282e-03
1.74250571e-02	3.32579821e-03	6.64312987e-03
1.86727881e-02	-2.69026331e-02	1.83682794e-02
-1.53808417e-03	-3.27124392e-02	8.95140999e-03
1.56205151e-02	-1.85377737e-02	4.65170266e-03
3.29632527e-02	1.30710834e-02	1.31160050e-02
5.35940821e-03	-2.84354334e-02	6.51448484e-03
-4.54523516e-04	-3.94969481e-02	9.95948643e-04
2.44472351e-02	-1.85833022e-04	1.10167561e-02
2.74555216e-02	-8.91374345e-03	1.51666744e-02
2.69829814e-02	4.69175808e-03	1.74451741e-02
1.57234966e-02	-3.79654932e-02	1.06547240e-02
2.19439281e-02	-1.66454498e-02	1.28595575e-02
3.01101863e-02	-2.45619375e-02	1.44696807e-03
3.47139000e-03	-3.73112220e-02	5.14090541e-03
1.43278620e-02	-3.56966927e-02	2.45658692e-03
3.86440687e-02	-8.85513181e-03	1.89649951e-03
1.09935532e-02	-3.00795742e-02	1.91397657e-03
1.85123859e-02	-1.56155026e-02	1.01676169e-02
3.28169586e-02	1.23400375e-03	1.45384856e-02
2.12883840e-02	-2.13698427e-02	1.75204390e-02
1.91419997e-02	-8.88826280e-03	9.80190764e-03
4.37097700e-03	-3.42272284e-02	9.27145553e-03
2.28576275e-02	-2.49861596e-02	1.16454813e-02
2.71531468e-02	-7.96997304e-03	8.68550990e-03
3.48953348e-02	-5.44018154e-03	1.44359136e-02
-2.27993594e-04	-3.24601208e-02	1.63908416e-03
1.80442085e-02	-1.92015107e-02	4.72683221e-03
2.80744742e-02	1.77529024e-02	1.53457822e-02
9.13072652e-03	-2.77679701e-02	5.22363296e-03
3.78782236e-03	-2.28983882e-02	9.80249596e-03
5.74241773e-03	-3.61096101e-02	1.67852567e-03
3.19523389e-02	1.61850591e-02	7.19042487e-03
3.40268564e-02	-1.30383046e-02	1.83832181e-02
2.03495032e-02	-5.02601106e-03	3.02897155e-03
1.02707382e-02	-2.82886319e-02	1.18255895e-02
2.72866628e-02	-1.12060466e-02	5.22429095e-03
-1.00710098e-03	-4.05716086e-02	7.66825033e-03
3.61013062e-02	-8.26791629e-03	1.80546787e-02
3.89704373e-02	-8.41754932e-03	5.97297869e-03
-4.99523502e-03	-3.65039021e-02	1.61279308e-02
3.56013759e-02	5.19651407e-03	9.31670591e-03
2.87231784e-02	-2.27902367e-02	1.75630091e-02
8.13022674e-03	-3.23861901e-02	1.60228530e-02
7.08078892e-03	-3.87331880e-02	1.78915631e-02
-1.17110560e-02	-3.66363369e-02	1.05385278e-02
1.15885093e-02	-5.74981787e-03	1.79632056e-03
2.00030468e-02	4.66367077e-03	1.63806929e-02
-3.05026355e-03	-2.84891536e-02	1.32434342e-02
-3.17926711e-03	-2.69379198e-02	8.30085633e-03
3.23854559e-02	-1.55235866e-02	5.01182135e-03
2.60314984e-02	6.63997568e-03	6.17128599e-03
1.84173439e-02	-3.85837592e-02	1.82881684e-02
3.71377431e-02	-1.59203753e-02	1.40696294e-02
1.12778687e-02	-9.86427712e-03	1.57755261e-02
-4.44615382e-04	-2.96132712e-02	1.25905982e-02
1.89128311e-02	-2.35190486e-02	2.39709454e-03
4.90162286e-03	-2.20010642e-02	1.50861078e-02
9.38838610e-03	-3.53075698e-02	1.78544881e-02
1.72575289e-03	-2.83875589e-02	2.15517660e-03
3.63074074e-02	-2.54525269e-03	1.56962744e-02
1.78341193e-02	-6.27780712e-03	1.60337323e-02
3.68963262e-02	-1.29892738e-02	1.46130737e-02
2.66307825e-02	-2.57424790e-02	1.72701635e-02
1.54183878e-02	-2.16082340e-02	1.95729039e-03
2.92692380e-02	-9.21338293e-03	1.28779149e-02
1.30746948e-02	-5.58289063e-03	1.22852004e-02
2.87503041e-02	-2.60552025e-03	1.00810631e-02
2.35721077e-02	-1.36845170e-02	6.25466614e-03
3.51330358e-02	4.48045253e-03	1.82867209e-02
2.39959419e-02	-2.58818864e-02	1.41778359e-02
2.47168146e-02	-2.09724544e-02	1.44148082e-02
3.90347187e-02	-8.59288130e-03	1.78038869e-02
1.47123261e-02	8.24721634e-04	1.00434267e-02
3.52699989e-02	-4.87072822e-04	1.39401367e-02
2.69030591e-02	-2.05455769e-02	7.89965685e-03
2.77910889e-02	-1.83583438e-02	1.39492063e-02
3.15278195e-02	-2.26060475e-02	5.93118771e-03
8.29953542e-03	-2.41184363e-02	1.53797304e-02
2.96578082e-02	-1.32002005e-02	1.16140118e-02
3.62796037e-02	1.35176498e-02	1.45012146e-02
2.76575554e-02	5.44859009e-03	1.72655229e-03
3.44749688e-02	1.02902995e-02	1.10907697e-02
2.81872816e-02	8.32822927e-03	1.34852513e-02
1.68525947e-02	-1.81728837e-02	1.52751080e-02
9.82600713e-03	-2.31339723e-02	2.06007139e-03
[...]
POINT_DATA 469
SCALARS Radius double 1
LOOKUP_TABLE default
2.00000000e-03
2.00000000e-03
2.00000000e-03
2.00000000e-03
2.00000000e-03
2.00000000e-03
2.00000000e-03
2.00000000e-03
2.00000000e-03
2.00000000e-03
2.00000000e-03
2.00000000e-03
2.00000000e-03
2.00000000e-03
2.00000000e-03
2.00000000e-03
2.00000000e-03
2.00000000e-03
2.00000000e-03
2.00000000e-03
2.00000000e-03
2.00000000e-03
2.00000000e-03
2.00000000e-03
2.00000000e-03
2.00000000e-03
2.00000000e-03
2.00000000e-03
2.00000000e-03
2.00000000e-03
2.00000000e-03
2.00000000e-03
2.00000000e-03
2.00000000e-03
2.00000000e-03
2.00000000e-03
2.00000000e-03
2.00000000e-03
2.00000000e-03
2.00000000e-03
2.00000000e-03
2.00000000e-03
2.00000000e-03
2.00000000e-03
2.00000000e-03
2.00000000e-03
2.00000000e-03
2.00000000e-03
2.00000000e-03
2.00000000e-03
2.00000000e-03
2.00000000e-03
2.00000000e-03
2.00000000e-03
2.00000000e-03
2.00000000e-03
2.00000000e-03
2.00000000e-03
2.00000000e-03
2.00000000e-03
2.00000000e-03
2.00000000e-03
2.00000000e-03
2.00000000e-03
2.00000000e-03
2.00000000e-03
2.00000000e-03
2.00000000e-03
2.00000000e-03
2.00000000e-03
2.00000000e-03
2.00000000e-03
2.00000000e-03
2.00000000e-03
2.00000000e-03
2.00000000e-03
2.00000000e-03
2.00000000e-03
2.00000000e-03
2.00000000e-03
2.00000000e-03
2.00000000e-03
2.00000000e-03
2.00000000e-03
2.00000000e-03
2.00000000e-03
2.00000000e-03
2.00000000e-03
2.00000000e-03
2.00000000e-03
2.00000000e-03
2.00000000e-03
2.00000000e-03
2.00000000e-03
2.00000000e-03
2.00000000e-03
2.00000000e-03
2.00000000e-03
2.00000000e-03
2.00000000e-03
2.00000000e-03
2.00000000e-03
2.00000000e-03
2.00000000e-03
2.00000000e-03
2.00000000e-03
2.00000000e-03
2.00000000e-03
2.00000000e-03
2.00000000e-03
2.00000000e-03
2.00000000e-03
2.00000000e-03
2.00000000e-03
2.00000000e-03
2.00000000e-03
2.00000000e-03
2.00000000e-03
2.00000000e-03
2.00000000e-03
2.00000000e-03
2.00000000e-03
2.00000000e-03
2.00000000e-03
2.00000000e-03
2.00000000e-03
2.00000000e-03
2.00000000e-03
2.00000000e-03
2.00000000e-03
2.00000000e-03
2.00000000e-03
2.00000000e-03
2.00000000e-03
2.00000000e-03
2.00000000e-03
2.00000000e-03
2.00000000e-03
2.00000000e-03
2.00000000e-03
2.00000000e-03
2.00000000e-03
2.00000000e-03
2.00000000e-03
2.00000000e-03
2.00000000e-03
2.00000000e-03
2.00000000e-03
2.00000000e-03
2.00000000e-03
2.00000000e-03
2.00000000e-03
2.00000000e-03
2.00000000e-03
2.00000000e-03
2.00000000e-03
2.00000000e-03
2.00000000e-03
2.00000000e-03
2.00000000e-03
2.00000000e-03
2.00000000e-03
2.00000000e-03
2.00000000e-03
2.00000000e-03
2.00000000e-03
2.00000000e-03
2.00000000e-03
2.00000000e-03
2.00000000e-03
2.00000000e-03
2.00000000e-03
2.00000000e-03
2.00000000e-03
2.00000000e-03
2.00000000e-03
2.00000000e-03
2.00000000e-03
2.00000000e-03
2.00000000e-03
2.00000000e-03
2.00000000e-03
2.00000000e-03
2.00000000e-03
2.00000000e-03
2.00000000e-03
2.00000000e-03
2.00000000e-03
2.00000000e-03
2.00000000e-03
2.00000000e-03
2.00000000e-03
2.00000000e-03
2.00000000e-03
2.00000000e-03
2.00000000e-03
2.00000000e-03
2.00000000e-03
2.00000000e-03
2.00000000e-03
2.00000000e-03
2.00000000e-03
2.00000000e-03
2.00000000e-03
2.00000000e-03
2.00000000e-03
2.00000000e-03
2.00000000e-03
2.00000000e-03
2.00000000e-03
2.00000000e-03
2.00000000e-03
2.00000000e-03
2.00000000e-03
2.00000000e-03
2.00000000e-03
2.00000000e-03
2.00000000e-03
2.00000000e-03
2.00000000e-03
2.00000000e-03
2.00000000e-03
2.00000000e-03
2.00000000e-03
2.00000000e-03
2.00000000e-03
2.00000000e-03
2.00000000e-03
2.00000000e-03
2.00000000e-03
2.00000000e-03
2.00000000e-03
2.00000000e-03
2.00000000e-03
2.00000000e-03
2.00000000e-03
2.00000000e-03
2.00000000e-03
2.00000000e-03
2.00000000e-03
2.00000000e-03
2.00000000e-03
2.00000000e-03
2.00000000e-03
2.00000000e-03
2.00000000e-03
2.00000000e-03
2.00000000e-03
2.00000000e-03
2.00000000e-03
2.00000000e-03
2.00000000e-03
2.00000000e-03
2.00000000e-03
2.00000000e-03
2.00000000e-03
2.00000000e-03
2.00000000e-03
2.00000000e-03
2.00000000e-03
2.00000000e-03
2.00000000e-03
2.00000000e-03
2.00000000e-03
2.00000000e-03
2.00000000e-03
2.00000000e-03
2.00000000e-03
2.00000000e-03
2.00000000e-03
2.00000000e-03
2.00000000e-03
2.00000000e-03
2.00000000e-03
2.00000000e-03
2.00000000e-03
2.00000000e-03
2.00000000e-03
2.00000000e-03
2.00000000e-03
2.00000000e-03
2.00000000e-03
2.00000000e-03
2.00000000e-03
2.00000000e-03
2.00000000e-03
2.00000000e-03
2.00000000e-03
2.00000000e-03
2.00000000e-03
2.00000000e-03
2.00000000e-03
2.00000000e-03
2.00000000e-03
2.00000000e-03
2.00000000e-03
2.00000000e-03
2.00000000e-03
2.00000000e-03
2.00000000e-03
2.00000000e-03
2.00000000e-03
2.00000000e-03
2.00000000e-03
2.00000000e-03
2.00000000e-03
2.00000000e-03
2.00000000e-03
2.00000000e-03
2.00000000e-03
2.00000000e-03
2.00000000e-03
2.00000000e-03
2.00000000e-03
2.00000000e-03
2.00000000e-03
2.00000000e-03
2.00000000e-03
2.00000000e-03
2.00000000e-03
2.00000000e-03
2.00000000e-03
2.00000000e-03
2.00000000e-03
2.00000000e-03
2.00000000e-03
2.00000000e-03
2.00000000e-03
2.00000000e-03
2.00000000e-03
2.00000000e-03
2.00000000e-03
2.00000000e-03
2.00000000e-03
2.00000000e-03
2.00000000e-03
2.00000000e-03
2.00000000e-03
2.00000000e-03
2.00000000e-03
2.00000000e-03
2.00000000e-03
2.00000000e-03
2.00000000e-03
2.00000000e-03
2.00000000e-03
2.00000000e-03
2.00000000e-03
2.00000000e-03
2.00000000e-03
2.00000000e-03
2.00000000e-03
2.00000000e-03
2.00000000e-03
2.00000000e-03
2.00000000e-03
2.00000000e-03
2.00000000e-03
2.00000000e-03
2.00000000e-03
2.00000000e-03
2.00000000e-03
2.00000000e-03
2.00000000e-03
2.00000000e-03
2.00000000e-03
2.00000000e-03
2.00000000e-03
2.00000000e-03
2.00000000e-03
2.00000000e-03
2.00000000e-03
2.00000000e-03
2.00000000e-03
2.00000000e-03
2.00000000e-03
2.00000000e-03
2.00000000e-03
2.00000000e-03
2.00000000e-03
2.00000000e-03
2.00000000e-03
2.00000000e-03
2.00000000e-03
2.00000000e-03
2.00000000e-03
2.00000000e-03
2.00000000e-03
2.00000000e-03
2.00000000e-03
2.00000000e-03
2.00000000e-03
2.00000000e-03
2.00000000e-03
2.00000000e-03
2.00000000e-03
2.00000000e-03
2.00000000e-03
2.00000000e-03
2.00000000e-03
2.00000000e-03
2.00000000e-03
2.00000000e-03
2.00000000e-03
2.00000000e-03
2.00000000e-03
2.00000000e-03
2.00000000e-03
2.00000000e-03
2.00000000e-03
2.00000000e-03
2.00000000e-03
2.00000000e-03
2.00000000e-03
2.00000000e-03
2.00000000e-03
2.00000000e-03
2.00000000e-03
2.00000000e-03
2.00000000e-03
2.00000000e-03
2.00000000e-03
2.00000000e-03
2.00000000e-03
2.00000000e-03
2.00000000e-03
2.00000000e-03
2.00000000e-03
2.00000000e-03
2.00000000e-03
2.00000000e-03
2.00000000e-03
2.00000000e-03
2.00000000e-03
2.00000000e-03
2.00000000e-03
2.00000000e-03
2.00000000e-03
2.00000000e-03
2.00000000e-03
2.00000000e-03
2.00000000e-03
2.00000000e-03
2.00000000e-03
2.00000000e-03
2.00000000e-03
2.00000000e-03
2.00000000e-03
2.00000000e-03
2.00000000e-03
2.00000000e-03
2.00000000e-03
2.00000000e-03
2.00000000e-03
2.00000000e-03
2.00000000e-03
2.00000000e-03
2.00000000e-03
2.00000000e-03
2.00000000e-03
2.00000000e-03
2.00000000e-03
2.00000000e-03
2.00000000e-03
2.00000000e-03
2.00000000e-03
2.00000000e-03
2.00000000e-03
2.00000000e-03
