# vtk DataFile Version 2.0
Particle data
ASCII
DATASET POLYDATA
POINTS 469 double
3.08024038e-02	-1.85225583e-02	8.61543522e-03
2.01180928e-02	-2.55775668e-02	1.35395100e-02
8.48657076e-03	-2.98712069e-02	5.60249630e-03
3.04477508e-02	1.42534488e-02	1.80290411e-02
1.59600978e-02	-2.42106441e-02	2.51474943e-03
3.48464359e-02	-1.95834388e-02	2.53111434e-03
2.78468123e-02	-1.92072840e-02	1.11626900e-02
2.51709616e-02	-2.24113587e-03	1.81170542e-02
1.36822099e-02	-3.33063809e-02	1.82014352e-02
-4.94530455e-03	-1.74171209e-02	1.77584436e-02
3.73073252e-02	-1.40992504e-02	1.78968840e-02
2.20588426e-02	-2.28253016e-02	1.80320942e-02
1.50543065e-03	-4.00669331e-02	1.18086594e-02
9.81273593e-03	-2.51693147e-02	2.44561702e-03
3.63049102e-02	-1.65697025e-02	1.43877725e-02
2.17221415e-02	2.25876820e-03	1.42209886e-02
3.11088153e-02	1.02283374e-02	1.47436744e-02
1.89953459e-02	-3.18050113e-02	1.94429293e-03
3.00480773e-02	1.68631652e-03	1.31043841e-02
3.67862390e-02	-1.09493149e-02	1.10250165e-02
3.59168864e-02	-6.53843957e-03	2.04649929e-03
8.34136439e-03	-3.68474019e-02	1.80464067e-02
1.78899821e-02	5.31704602e-03	8.72462139e-03
1.65985665e-02	-1.23137730e-02	2.19295611e-03
6.09488810e-03	-2.47662714e-02	2.22657485e-03
1.16293518e-02	9.41548448e-04	1.16442264e-02
4.00221964e-02	2.52947712e-03	1.38071564e-02
1.52024180e-02	-3.37734257e-02	1.37211606e-02
3.63243610e-02	1.38212229e-02	1.54731658e-02
2.09233051e-02	-1.39866766e-02	1.35741185e-02
1.37087159e-02	-3.18467077e-02	1.03230267e-02
2.55673609e-02	-3.20562653e-02	2.29476122e-03
1.99200345e-02	-3.00799239e-02	5.69088746e-03
4.99821661e-03	-2.51574265e-02	1.75247255e-02
-6.43698428e-03	-3.02216199e-02	9.70923883e-03
9.90677706e-03	-3.14683421e-02	1.14347098e-02
3.63934905e-02	-1.78494872e-02	6.49089457e-03
3.59886124e-02	5.61665054e-03	9.68820671e-03
2.36451055e-02	-2.20204786e-02	1.07215449e-02
1.41663560e-02	-1.68984970e-02	2.98189608e-03
3.61695609e-02	1.98804410e-03	7.80422738e-03
2.38041598e-02	-3.15403662e-02	1.54089623e-02
-1.26140372e-02	-3.50127439e-02	2.12045266e-03
2.51340322e-02	-1.48427182e-02	1.42305583e-02
1.98176558e-02	4.91517234e-03	1.44646611e-02
3.60609719e-02	-5.01011261e-03	1.13392663e-02
2.96082868e-02	-8.26009978e-03	1.40283732e-02
2.66648239e-02	-8.69468646e-03	6.34060663e-03
1.93959107e-02	-9.71871599e-03	1.42672292e-02
2.42342451e-02	-1.68092862e-02	1.81459533e-02
2.07585191e-02	-1.26508253e-02	2.17456831e-03
1.84220810e-02	-1.26661882e-02	5.08928374e-03
2.91481368e-02	9.50132168e-03	1.83507308e-02
2.44617435e-02	-3.16811676e-03	6.22916579e-03
1.64195148e-02	2.69372945e-03	1.00284506e-02
3.78115244e-02	1.01703751e-02	1.43550503e-02
-4.42039068e-03	-1.97332111e-02	8.22415659e-03
3.23136552e-02	-5.96954416e-03	1.52670049e-02
7.99997928e-03	-1.21015769e-02	1.18645901e-02
1.55465345e-03	-1.67664487e-02	1.76572183e-02
-7.10663630e-03	-3.44332454e-02	1.81739956e-02
8.47474616e-03	-1.91877099e-02	1.06398648e-02
1.89426978e-02	-1.54035360e-02	1.79128796e-02
3.14236562e-02	1.13494903e-02	1.07704173e-02
8.11947206e-03	-3.34513445e-02	4.10909504e-03
3.92788614e-02	-7.36268602e-03	6.26153762e-03
-1.64393201e-02	-3.56850698e-02	3.20951476e-03
1.88790411e-02	-2.69900950e-02	1.78026690e-02
8.92140404e-03	-6.55367010e-03	6.98713534e-03
-1.28526514e-03	-3.84832578e-02	9.60201567e-03
3.96064714e-02	4.81233376e-03	6.16702711e-03
9.34812353e-03	-3.74383110e-02	2.03690774e-03
3.18663257e-02	-1.40474746e-02	1.78306399e-02
3.67700795e-02	-1.44129671e-03	8.52248404e-03
2.81491066e-02	-2.84475468e-02	5.74692707e-03
3.96289259e-02	-6.34091092e-05	1.80465499e-02
3.03842633e-02	1.21123305e-03	6.50996437e-03
2.38815930e-02	-1.82632185e-02	9.31822831e-03
-3.39714245e-03	-4.04952222e-02	1.81166201e-02
1.59650027e-02	-5.80138623e-03	1.75119788e-02
3.19845256e-02	-5.42618967e-03	5.60019514e-03
6.01773269e-03	-2.30150245e-02	7.06625504e-03
7.15244792e-05	-2.51607933e-02	1.67677505e-03
2.46374974e-03	-2.21842589e-02	1.80210310e-02
-2.19167517e-03	-2.85631524e-02	3.50009694e-03
3.88599545e-02	-8.80371850e-03	1.91259563e-03
2.65610469e-02	-2.58734092e-02	1.49394611e-02
2.56050995e-02	1.16879311e-02	1.28921608e-02
-1.99847697e-03	-3.57600482e-02	6.31164048e-03
2.07084183e-02	-1.09943963e-03	7.22075403e-03
3.62938623e-02	-3.22616056e-03	5.06318520e-03
2.68090904e-02	-1.58506116e-02	2.22774181e-03
9.81767546e-03	-3.64737615e-02	6.09513944e-03
4.03001890e-02	3.74888141e-03	9.52293073e-03
1.32694767e-02	-2.80152299e-02	7.62516496e-03
1.41434619e-02	-3.75304975e-02	8.52588072e-03
2.70738109e-02	1.04915164e-02	7.08208250e-03
1.17513040e-02	-6.69922400e-03	1.50630946e-02
1.15949096e-02	-2.12632152e-02	1.79299416e-02
1.24984520e-02	-2.09842273e-02	8.30622846e-03
1.31606381e-02	-6.17163481e-03	4.38283983e-03
1.52315061e-02	-4.49003867e-03	9.22902297e-03
3.00127506e-02	6.25156217e-03	1.36764261e-02
1.30707348e-03	-4.02276757e-02	1.69225193e-02
9.35400370e-03	-9.95501751e-03	8.97243667e-03
2.47721921e-02	-7.99223489e-03	1.89996507e-03
2.15758945e-02	2.33098943e-03	1.63021995e-03
1.86806741e-02	-8.36779030e-03	5.81817007e-03
-1.29141558e-02	-2.88769752e-02	2.00126376e-03
1.88926604e-02	-2.12904452e-02	5.06706417e-03
2.08671541e-02	3.76170720e-03	5.28595684e-03
3.65256808e-02	-2.03340224e-03	1.80316218e-02
3.25025543e-02	-8.20250945e-03	1.14069041e-02
2.77438048e-02	9.02205205e-03	1.74853937e-03
-2.36879852e-04	-3.12743332e-02	1.39840654e-02
8.22239045e-03	-8.17007368e-03	2.13074500e-03
3.96836450e-02	8.39571668e-03	1.01081085e-02
2.86908379e-03	-1.76476566e-02	7.20158796e-03
1.47083635e-02	-2.84867626e-02	1.06234177e-02
2.52571462e-02	-3.13703821e-02	6.23911051e-03
2.99241594e-02	-1.22382632e-02	1.90730607e-03
1.43335630e-02	-1.82610660e-02	1.55037730e-02
3.85342081e-02	-1.06466037e-02	1.73514218e-02
-5.53554419e-03	-3.77165707e-02	6.24640237e-03
5.53402761e-03	-3.90561793e-02	1.81473216e-02
3.63185205e-02	-9.40797524e-03	4.44385483e-03
3.35015936e-02	-2.19049515e-02	5.37143096e-03
2.23520839e-02	-2.38884916e-02	7.10942998e-03
3.39227736e-02	9.49587919e-03	9.32881598e-03
2.86974918e-02	3.87495328e-03	1.97974840e-03
3.51337696e-02	5.57752890e-03	5.69112193e-03
8.11013695e-03	-3.86847451e-02	4.28478426e-03
3.27176898e-02	-3.35824347e-03	1.83113137e-02
1.96430960e-02	-3.16836656e-02	1.25892900e-02
1.71288461e-02	-1.64576899e-02	9.54051139e-03
-7.63185955e-03	-3.63233280e-02	1.24513603e-02
1.42416189e-02	-3.15917899e-02	3.75795880e-03
3.19541307e-02	-1.95864858e-02	2.25367394e-03
1.53157879e-02	-8.27445232e-03	1.42144424e-02
3.58783962e-02	5.50559063e-03	1.74939051e-02
-5.30941761e-03	-3.22035830e-02	1.59800013e-02
3.35440106e-02	-1.06397453e-02	2.15387121e-03
3.48254548e-02	-9.66491682e-03	1.44483791e-02
3.88945534e-02	8.69762413e-03	5.90163948e-03
3.03459440e-02	-1.48307013e-02	8.54809331e-03
3.79761146e-02	-1.26522536e-02	2.55823259e-03
2.50749581e-02	1.41130033e-02	9.44426103e-03
3.67163003e-02	-1.58338921e-02	2.11402188e-03
1.93262662e-02	-5.66049693e-03	8.06415296e-03
4.08990292e-03	-2.00970887e-02	1.77280906e-02
3.11983935e-02	-1.25737246e-02	1.13641039e-02
1.81717305e-02	-1.06284554e-04	1.76840441e-02
3.17947506e-02	-2.43542521e-02	1.14068436e-02
3.91442984e-02	-2.48756092e-03	1.42772022e-02
2.44959307e-02	-1.10640730e-02	1.13391472e-02
2.64727322e-02	-4.71140293e-03	1.06173480e-02
3.08358274e-02	-2.54763370e-02	5.79895819e-03
1.41347362e-02	-2.19351632e-02	5.30875192e-03
-2.22738001e-03	-4.04677378e-02	1.42267636e-02
2.78472450e-02	-9.05321357e-03	2.27861978e-03
1.43517077e-02	-3.44337500e-02	6.78267846e-03
3.27343464e-02	-2.38176855e-02	2.28935801e-03
-4.46429937e-03	-3.34542363e-02	9.58843399e-03
3.18348349e-02	7.21634534e-03	1.79142524e-02
6.70846528e-03	-1.88028279e-02	1.85305413e-03
1.97022499e-02	-2.22273377e-02	1.25653065e-02
2.21931952e-02	-1.12469130e-02	6.98397998e-03
3.44954803e-02	-1.27410250e-02	5.05528808e-03
3.46970563e-02	1.66842019e-02	1.80703287e-02
1.97984219e-02	-1.10355925e-03	1.08567475e-02
3.37095075e-02	-2.15027711e-02	9.16998306e-03
1.49626274e-03	-1.77240850e-02	9.11070685e-03
2.77029010e-02	-8.99328068e-03	1.09798635e-02
2.37345737e-02	-2.18286439e-02	1.45721635e-02
2.58288229e-02	-1.63924659e-02	5.48176568e-03
2.73487965e-02	-2.37875105e-02	1.23411171e-02
2.01373920e-02	-3.40642919e-02	1.96056615e-03
2.73248555e-03	-3.68371883e-02	1.77528264e-02
2.96898773e-02	-2.70183362e-02	1.78356922e-02
1.69001250e-02	-5.46604201e-03	5.04847012e-03
3.28251600e-02	1.38414178e-02	1.42615067e-02
-1.18767046e-04	-3.00933137e-02	5.65046190e-03
2.09219318e-02	-1.83448444e-02	1.80825107e-02
2.84242852e-02	1.36347846e-02	8.05250926e-03
7.61187916e-03	-2.68857199e-02	8.86051669e-03
2.98795780e-02	-2.71890345e-02	9.54409335e-03
3.44433961e-02	-1.28456195e-02	1.34145590e-02
2.15052853e-02	-3.43383218e-02	1.35411371e-02
2.76953683e-02	-9.26778886e-03	1.80589276e-02
2.95188440e-02	-2.72050109e-02	1.81042021e-03
2.46130978e-02	1.04272061e-02	1.78666476e-02
3.90633062e-03	-2.25288208e-02	1.36858729e-02
1.94488693e-02	8.03801630e-03	1.15833183e-02
3.55387442e-02	1.59700014e-02	7.78428025e-03
1.03744597e-02	-2.10766182e-02	5.87380079e-03
2.75295463e-02	2.07806925e-03	1.81458110e-02
5.42668658e-03	-2.66288093e-02	1.11050129e-02
2.16361107e-02	-8.89182937e-03	1.21943785e-02
2.39756457e-02	-1.41843032e-02	9.75061779e-03
1.42412457e-02	4.40819761e-03	1.78429776e-02
3.97901241e-02	-8.41734097e-04	1.08556672e-02
3.45951489e-02	-7.32661328e-03	7.55933644e-03
2.64115288e-02	6.70505380e-03	9.15873675e-03
6.16872396e-03	-3.92409058e-02	1.17048426e-02
2.50580763e-02	1.44193299e-02	1.59283816e-02
3.02921305e-02	-8.25510304e-03	8.13134630e-03
2.84434260e-02	-4.93371904e-03	1.46052353e-02
4.01572262e-02	4.94185562e-03	1.72712568e-02
1.13262087e-02	-3.22497639e-02	1.51606277e-02
3.32055542e-02	9.87253477e-04	1.43845378e-02
-1.08249288e-02	-3.51954528e-02	1.43842061e-02
1.89229392e-02	6.00584790e-03	2.22113741e-03
-3.70900840e-03	-2.27589870e-02	1.24212771e-02
1.65182050e-02	-2.78621694e-03	1.30024259e-02
1.70586527e-02	-3.05498373e-02	1.50388757e-02
7.73771904e-03	-2.87612686e-02	2.01785117e-03
[...]
POINT_DATA 469
SCALARS Radius double 1
LOOKUP_TABLE default
2.00000000e-03
2.00000000e-03
2.00000000e-03
2.00000000e-03
2.00000000e-03
2.00000000e-03
2.00000000e-03
2.00000000e-03
2.00000000e-03
2.00000000e-03
2.00000000e-03
2.00000000e-03
2.00000000e-03
2.00000000e-03
2.00000000e-03
2.00000000e-03
2.00000000e-03
2.00000000e-03
2.00000000e-03
2.00000000e-03
2.00000000e-03
2.00000000e-03
2.00000000e-03
2.00000000e-03
2.00000000e-03
2.00000000e-03
2.00000000e-03
2.00000000e-03
2.00000000e-03
2.00000000e-03
2.00000000e-03
2.00000000e-03
2.00000000e-03
2.00000000e-03
2.00000000e-03
2.00000000e-03
2.00000000e-03
2.00000000e-03
2.00000000e-03
2.00000000e-03
2.00000000e-03
2.00000000e-03
2.00000000e-03
2.00000000e-03
2.00000000e-03
2.00000000e-03
2.00000000e-03
2.00000000e-03
2.00000000e-03
2.00000000e-03
2.00000000e-03
2.00000000e-03
2.00000000e-03
2.00000000e-03
2.00000000e-03
2.00000000e-03
2.00000000e-03
2.00000000e-03
2.00000000e-03
2.00000000e-03
2.00000000e-03
2.00000000e-03
2.00000000e-03
2.00000000e-03
2.00000000e-03
2.00000000e-03
2.00000000e-03
2.00000000e-03
2.00000000e-03
2.00000000e-03
2.00000000e-03
2.00000000e-03
2.00000000e-03
2.00000000e-03
2.00000000e-03
2.00000000e-03
2.00000000e-03
2.00000000e-03
2.00000000e-03
2.00000000e-03
2.00000000e-03
2.00000000e-03
2.00000000e-03
2.00000000e-03
2.00000000e-03
2.00000000e-03
2.00000000e-03
2.00000000e-03
2.00000000e-03
2.00000000e-03
2.00000000e-03
2.00000000e-03
2.00000000e-03
2.00000000e-03
2.00000000e-03
2.00000000e-03
2.00000000e-03
2.00000000e-03
2.00000000e-03
2.00000000e-03
2.00000000e-03
2.00000000e-03
2.00000000e-03
2.00000000e-03
2.00000000e-03
2.00000000e-03
2.00000000e-03
2.00000000e-03
2.00000000e-03
2.00000000e-03
2.00000000e-03
2.00000000e-03
2.00000000e-03
2.00000000e-03
2.00000000e-03
2.00000000e-03
2.00000000e-03
2.00000000e-03
2.00000000e-03
2.00000000e-03
2.00000000e-03
2.00000000e-03
2.00000000e-03
2.00000000e-03
2.00000000e-03
2.00000000e-03
2.00000000e-03
2.00000000e-03
2.00000000e-03
2.00000000e-03
2.00000000e-03
2.00000000e-03
2.00000000e-03
2.00000000e-03
2.00000000e-03
2.00000000e-03
2.00000000e-03
2.00000000e-03
2.00000000e-03
2.00000000e-03
2.00000000e-03
2.00000000e-03
2.00000000e-03
2.00000000e-03
2.00000000e-03
2.00000000e-03
2.00000000e-03
2.00000000e-03
2.00000000e-03
2.00000000e-03
2.00000000e-03
2.00000000e-03
2.00000000e-03
2.00000000e-03
2.00000000e-03
2.00000000e-03
2.00000000e-03
2.00000000e-03
2.00000000e-03
2.00000000e-03
2.00000000e-03
2.00000000e-03
2.00000000e-03
2.00000000e-03
2.00000000e-03
2.00000000e-03
2.00000000e-03
2.00000000e-03
2.00000000e-03
2.00000000e-03
2.00000000e-03
2.00000000e-03
2.00000000e-03
2.00000000e-03
2.00000000e-03
2.00000000e-03
2.00000000e-03
2.00000000e-03
2.00000000e-03
2.00000000e-03
2.00000000e-03
2.00000000e-03
2.00000000e-03
2.00000000e-03
2.00000000e-03
2.00000000e-03
2.00000000e-03
2.00000000e-03
2.00000000e-03
2.00000000e-03
2.00000000e-03
2.00000000e-03
2.00000000e-03
2.00000000e-03
2.00000000e-03
2.00000000e-03
2.00000000e-03
2.00000000e-03
2.00000000e-03
2.00000000e-03
2.00000000e-03
2.00000000e-03
2.00000000e-03
2.00000000e-03
2.00000000e-03
2.00000000e-03
2.00000000e-03
2.00000000e-03
2.00000000e-03
2.00000000e-03
2.00000000e-03
2.00000000e-03
2.00000000e-03
2.00000000e-03
2.00000000e-03
2.00000000e-03
2.00000000e-03
2.00000000e-03
2.00000000e-03
2.00000000e-03
2.00000000e-03
2.00000000e-03
2.00000000e-03
2.00000000e-03
2.00000000e-03
2.00000000e-03
2.00000000e-03
2.00000000e-03
2.00000000e-03
2.00000000e-03
2.00000000e-03
2.00000000e-03
2.00000000e-03
2.00000000e-03
2.00000000e-03
2.00000000e-03
2.00000000e-03
2.00000000e-03
2.00000000e-03
2.00000000e-03
2.00000000e-03
2.00000000e-03
2.00000000e-03
2.00000000e-03
2.00000000e-03
2.00000000e-03
2.00000000e-03
2.00000000e-03
2.00000000e-03
2.00000000e-03
2.00000000e-03
2.00000000e-03
2.00000000e-03
2.00000000e-03
2.00000000e-03
2.00000000e-03
2.00000000e-03
2.00000000e-03
2.00000000e-03
2.00000000e-03
2.00000000e-03
2.00000000e-03
2.00000000e-03
2.00000000e-03
2.00000000e-03
2.00000000e-03
2.00000000e-03
2.00000000e-03
2.00000000e-03
2.00000000e-03
2.00000000e-03
2.00000000e-03
2.00000000e-03
2.00000000e-03
2.00000000e-03
2.00000000e-03
2.00000000e-03
2.00000000e-03
2.00000000e-03
2.00000000e-03
2.00000000e-03
2.00000000e-03
2.00000000e-03
2.00000000e-03
2.00000000e-03
2.00000000e-03
2.00000000e-03
2.00000000e-03
2.00000000e-03
2.00000000e-03
2.00000000e-03
2.00000000e-03
2.00000000e-03
2.00000000e-03
2.00000000e-03
2.00000000e-03
2.00000000e-03
2.00000000e-03
2.00000000e-03
2.00000000e-03
2.00000000e-03
2.00000000e-03
2.00000000e-03
2.00000000e-03
2.00000000e-03
2.00000000e-03
2.00000000e-03
2.00000000e-03
2.00000000e-03
2.00000000e-03
2.00000000e-03
2.00000000e-03
2.00000000e-03
2.00000000e-03
2.00000000e-03
2.00000000e-03
2.00000000e-03
2.00000000e-03
2.00000000e-03
2.00000000e-03
2.00000000e-03
2.00000000e-03
2.00000000e-03
2.00000000e-03
2.00000000e-03
2.00000000e-03
2.00000000e-03
2.00000000e-03
2.00000000e-03
2.00000000e-03
2.00000000e-03
2.00000000e-03
2.00000000e-03
2.00000000e-03
2.00000000e-03
2.00000000e-03
2.00000000e-03
2.00000000e-03
2.00000000e-03
2.00000000e-03
2.00000000e-03
2.00000000e-03
2.00000000e-03
2.00000000e-03
2.00000000e-03
2.00000000e-03
2.00000000e-03
2.00000000e-03
2.00000000e-03
2.00000000e-03
2.00000000e-03
2.00000000e-03
2.00000000e-03
2.00000000e-03
2.00000000e-03
2.00000000e-03
2.00000000e-03
2.00000000e-03
2.00000000e-03
2.00000000e-03
2.00000000e-03
2.00000000e-03
2.00000000e-03
2.00000000e-03
2.00000000e-03
2.00000000e-03
2.00000000e-03
2.00000000e-03
2.00000000e-03
2.00000000e-03
2.00000000e-03
2.00000000e-03
2.00000000e-03
2.00000000e-03
2.00000000e-03
2.00000000e-03
2.00000000e-03
2.00000000e-03
2.00000000e-03
2.00000000e-03
2.00000000e-03
2.00000000e-03
2.00000000e-03
2.00000000e-03
2.00000000e-03
2.00000000e-03
2.00000000e-03
2.00000000e-03
2.00000000e-03
2.00000000e-03
2.00000000e-03
2.00000000e-03
2.00000000e-03
2.00000000e-03
2.00000000e-03
2.00000000e-03
2.00000000e-03
2.00000000e-03
2.00000000e-03
2.00000000e-03
2.00000000e-03
2.00000000e-03
2.00000000e-03
2.00000000e-03
2.00000000e-03
2.00000000e-03
2.00000000e-03
2.00000000e-03
2.00000000e-03
2.00000000e-03
2.00000000e-03
2.00000000e-03
2.00000000e-03
2.00000000e-03
2.00000000e-03
2.00000000e-03
2.00000000e-03
2.00000000e-03
2.00000000e-03
2.00000000e-03
2.00000000e-03
2.00000000e-03
2.00000000e-03
2.00000000e-03
2.00000000e-03
2.00000000e-03
2.00000000e-03
2.00000000e-03
2.00000000e-03
2.00000000e-03
2.00000000e-03
2.00000000e-03
2.00000000e-03
2.00000000e-03
2.00000000e-03
2.00000000e-03
2.00000000e-03
2.00000000e-03
2.00000000e-03
2.00000000e-03
2.00000000e-03
2.00000000e-03
2.00000000e-03
2.00000000e-03
2.00000000e-03
2.00000000e-03
2.00000000e-03
2.00000000e-03
2.00000000e-03
2.00000000e-03
2.00000000e-03
2.00000000e-03
2.00000000e-03
2.00000000e-03
2.00000000e-03
2.00000000e-03
2.00000000e-03
2.00000000e-03
2.00000000e-03
2.00000000e-03
2.00000000e-03
2.00000000e-03
2.00000000e-03
2.00000000e-03
2.00000000e-03
2.00000000e-03
2.00000000e-03
2.00000000e-03
2.00000000e-03
