# vtk DataFile Version 2.0
Particle data
ASCII
DATASET POLYDATA
POINTS 469 double
8.96554526e-03	-3.90281152e-02	1.54446306e-02
1.23947560e-02	-2.65715390e-02	1.25563098e-02
-8.18879729e-03	-3.28139634e-02	1.25672953e-02
3.27775669e-02	-5.41789715e-03	8.37344925e-03
1.99639504e-02	-2.12646034e-02	1.78329419e-03
4.26210848e-03	-3.55684732e-02	2.91404277e-03
1.05469976e-03	-3.97281311e-02	1.86296417e-02
2.93660219e-02	-2.83827066e-03	1.78405100e-02
2.44816925e-04	-1.56352609e-02	1.79083278e-02
3.69125107e-02	1.75707863e-03	1.81820009e-02
1.57586507e-02	-3.49915171e-02	7.77873494e-03
6.85991893e-03	-2.93206235e-02	1.80561449e-02
2.58465939e-02	9.38685737e-03	1.00936742e-02
1.15141652e-02	-1.97198435e-02	5.61298081e-03
1.61238979e-02	-3.21119870e-02	1.45099967e-02
3.96450893e-02	-3.28466861e-03	1.12648314e-02
2.50901743e-02	-6.15027163e-03	6.44629816e-03
7.04296317e-03	-2.21946149e-02	2.20841818e-03
2.66690208e-02	-6.25761656e-03	1.33009233e-02
1.12000419e-02	-3.58419055e-02	4.90373110e-03
1.97802457e-02	-3.31775008e-02	2.30003768e-03
9.50899352e-03	-4.74968087e-03	1.71342082e-02
3.69221051e-02	-1.17675726e-02	2.13234326e-03
-2.60480978e-03	-3.09114293e-02	6.03136546e-03
3.62200752e-03	-2.47456307e-02	4.46130780e-03
3.49380333e-02	4.08648885e-04	9.24144879e-03
2.85984980e-02	-2.75235839e-02	1.48260279e-02
3.05207719e-03	-2.57207125e-02	1.60787331e-02
3.36063999e-02	-1.32189762e-02	1.14739090e-02
2.59431299e-02	-1.43284189e-03	1.50636078e-02
9.95486270e-03	-2.91908030e-02	9.09039497e-03
-1.20002249e-02	-2.96873088e-02	7.35801949e-03
4.56469557e-03	-2.75690095e-02	7.67887332e-03
1.19044103e-02	-7.42654217e-03	1.83982633e-02
3.75635612e-02	1.32526123e-02	1.06125206e-02
1.01613140e-02	-1.94150851e-02	1.16039949e-02
8.50746032e-03	-3.97237535e-02	9.62606813e-03
3.52063070e-02	-2.09270952e-02	9.96538790e-03
6.44823046e-03	-3.13429037e-02	1.33295449e-02
1.33238449e-02	-3.02125871e-02	5.05459978e-03
3.27867730e-02	-1.77512065e-02	1.19231923e-02
-9.90326049e-04	-2.88148755e-02	1.67722064e-02
3.66877178e-02	1.05437992e-02	2.68647298e-03
1.14161197e-02	-3.55742883e-02	1.80301108e-02
2.37243627e-02	3.26167253e-03	1.36867240e-02
1.99411901e-02	-3.11685518e-02	1.09410878e-02
1.86475681e-02	-1.96931516e-02	9.78971579e-03
2.58836692e-02	-2.70483544e-02	1.32198322e-02
2.56902378e-02	-9.67472944e-03	1.01055980e-02
1.55623614e-02	-3.70503117e-02	1.82582094e-02
2.89119858e-02	-2.52272704e-03	1.66052936e-03
1.97273359e-02	-1.83835484e-02	8.18423023e-03
3.28041264e-02	-2.13140867e-02	1.26585331e-02
2.72075656e-02	-4.96290794e-03	2.74749956e-03
3.40287164e-02	-2.97474730e-03	1.15912720e-02
3.38302523e-02	-6.63858557e-03	1.48676756e-02
3.92983151e-02	3.55364377e-04	9.20955526e-03
2.39082658e-02	-2.33314341e-02	1.77774650e-02
3.10033218e-02	1.21220263e-02	1.45802498e-02
2.83163739e-02	5.91413504e-03	1.50495484e-02
2.79967445e-02	1.21874770e-02	1.80275338e-02
1.75765187e-02	-7.27212562e-03	1.22597367e-02
2.14593401e-02	-9.43669903e-03	1.82950929e-02
3.62660248e-02	-8.03051274e-03	9.04619441e-03
1.08013711e-02	-1.14874410e-02	5.69948615e-03
1.87937372e-02	-3.05434216e-02	5.36597090e-03
3.73808421e-02	5.19368034e-03	3.54206119e-03
7.13484534e-03	-2.47383586e-02	1.46063256e-02
3.47254724e-02	4.06856197e-03	6.10216685e-03
2.41896862e-02	9.70265599e-03	8.49525904e-03
3.21052079e-02	-1.68996885e-02	7.89609839e-03
8.50569811e-03	-1.33224904e-03	1.86858206e-03
1.33521864e-02	-3.82077091e-02	1.80355923e-02
1.54859789e-02	-3.44693181e-02	1.36056884e-02
-1.11927856e-02	-3.44301444e-02	4.13316253e-03
3.04204892e-02	-1.73308558e-02	1.76800017e-02
2.41753011e-02	-7.77995596e-03	4.88102239e-03
4.61017852e-03	-3.86985421e-02	6.67796988e-03
2.78928233e-02	1.79625716e-02	1.83391440e-02
3.96710087e-02	-4.47242885e-03	1.80222594e-02
2.65088298e-02	-2.22721405e-02	9.02024571e-03
2.23420017e-02	-7.43542915e-03	8.82393962e-03
2.06313087e-02	-2.33291870e-03	6.22736002e-03
1.71566445e-02	-3.64757856e-03	1.81312999e-02
2.66706991e-02	9.96137537e-03	2.53124674e-03
2.10773187e-02	-3.70098941e-02	2.84495423e-03
1.34298436e-02	-2.42840625e-02	1.73046932e-02
3.79114175e-02	-8.96218384e-03	1.05991806e-02
2.04905415e-02	3.76593605e-03	6.23216934e-03
3.14248241e-02	5.63797276e-03	3.42076659e-03
2.43617347e-02	-3.09354355e-02	9.55314925e-03
1.55375456e-02	-3.49128035e-02	4.60506645e-03
-2.84458270e-03	-2.10831806e-02	9.79597601e-03
2.55318807e-02	-3.21216981e-02	1.74711349e-03
4.76662220e-03	-2.74737273e-02	1.07060283e-02
-8.38341978e-03	-2.68757729e-02	1.07533970e-02
3.90746929e-02	-9.43513540e-03	6.21401245e-03
3.47528002e-02	3.38702061e-03	1.27863628e-02
6.04183404e-03	-1.78625598e-02	1.82376249e-02
6.71747125e-03	-3.14089659e-02	8.97952031e-03
3.16521977e-02	1.90215233e-03	6.56471648e-03
2.95531827e-02	2.11315933e-03	1.15251073e-02
3.42921260e-02	-1.55265161e-02	1.54941314e-02
1.77387064e-02	5.41796950e-03	1.81179058e-02
3.06079673e-02	6.46805571e-03	8.25051879e-03
1.98141661e-02	-3.97436449e-02	1.02054073e-02
1.61274781e-02	-1.01924344e-02	9.76665038e-03
2.70290066e-02	-2.57519540e-03	4.41665090e-03
3.46196323e-02	5.52076523e-03	2.07354171e-03
1.33297496e-02	-2.85148798e-02	8.60467777e-03
3.64021930e-02	-7.51727830e-04	2.25739140e-03
2.26602545e-02	-3.13166255e-02	1.80621703e-02
2.70075423e-02	-1.94100730e-02	1.78780706e-02
3.31615374e-02	-3.69670531e-03	1.82725853e-03
2.44415827e-02	8.35765857e-03	1.36240371e-02
2.95227105e-02	8.58262640e-03	1.81070845e-03
2.14790243e-02	-3.54379731e-02	1.49301028e-02
3.91598821e-02	-6.52140539e-04	5.52809315e-03
1.39010182e-02	-2.30906000e-02	5.29716654e-03
-3.67169435e-03	-3.52319696e-02	2.64437780e-03
2.24908034e-02	-2.54649980e-02	1.98288516e-03
2.03803225e-02	-1.94296170e-03	1.46317528e-02
6.76038957e-03	-3.69736623e-02	1.67532148e-02
3.29160248e-02	1.81768144e-02	6.50336980e-03
9.29023178e-03	-1.09765771e-03	1.77999391e-02
2.00163286e-02	-3.66234947e-02	1.52613760e-02
9.77561994e-04	-3.56275381e-02	5.39650709e-03
4.47090188e-03	-3.61904611e-02	1.21758991e-02
3.40245458e-02	-9.82581875e-03	1.03944030e-02
2.62717886e-02	-1.90752283e-02	1.89680290e-03
3.19540565e-02	-8.01633711e-03	1.89321289e-03
1.51216152e-02	8.67607267e-04	6.92600868e-03
1.96358930e-02	-2.60180181e-02	1.84763512e-02
-8.34039597e-04	-3.35832797e-02	8.90309197e-03
1.61584442e-02	-1.80948150e-02	4.61365253e-03
3.21453467e-02	1.28368795e-02	1.29953402e-02
6.16654531e-03	-2.83196882e-02	6.44628558e-03
6.15407745e-04	-3.98241674e-02	1.05772342e-03
2.38886880e-02	5.18192278e-05	1.12352199e-02
2.77084857e-02	-8.15523185e-03	1.51882605e-02
2.66198878e-02	5.16418392e-03	1.75662501e-02
1.70570829e-02	-3.74688431e-02	1.08148834e-02
2.25187238e-02	-1.61012698e-02	1.28492050e-02
3.12219666e-02	-2.30757199e-02	1.39116755e-03
4.38423627e-03	-3.72913282e-02	5.22827467e-03
1.54903219e-02	-3.52399273e-02	2.44086613e-03
3.87180178e-02	-7.84552001e-03	1.79079622e-03
1.18215137e-02	-2.98563188e-02	1.89030035e-03
1.88909864e-02	-1.51403703e-02	1.02195638e-02
3.26306308e-02	2.31400802e-03	1.44873190e-02
2.18993245e-02	-2.09736454e-02	1.74988518e-02
1.92906166e-02	-8.73413478e-03	9.74761379e-03
5.20356133e-03	-3.46601582e-02	9.30046233e-03
2.34768873e-02	-2.44270571e-02	1.17462115e-02
2.73615366e-02	-7.01087442e-03	8.61961861e-03
3.50476679e-02	-4.54036052e-03	1.44066896e-02
6.70375071e-04	-3.30267816e-02	1.60710775e-03
1.86082541e-02	-1.85346492e-02	4.78809329e-03
2.64846233e-02	1.67531381e-02	1.50560121e-02
9.83432566e-03	-2.77084036e-02	5.27152459e-03
2.82408720e-03	-2.50110276e-02	9.53526049e-03
6.63777695e-03	-3.62969651e-02	1.74437768e-03
3.09221566e-02	1.58305166e-02	6.98902428e-03
3.42255607e-02	-1.19782359e-02	1.83460313e-02
2.04044009e-02	-4.60894690e-03	3.21173262e-03
1.10619532e-02	-2.82936195e-02	1.19325441e-02
2.76593592e-02	-1.05858427e-02	5.28058727e-03
3.65448761e-04	-4.01801729e-02	7.76472466e-03
3.63685547e-02	-7.24177802e-03	1.80744403e-02
3.90996795e-02	-7.04762167e-03	5.92199674e-03
-4.18524327e-03	-3.71336278e-02	1.62289353e-02
3.55746172e-02	6.57164322e-03	9.34537033e-03
2.92395056e-02	-2.23722880e-02	1.76571834e-02
8.59804592e-03	-3.24887401e-02	1.61285481e-02
8.31561049e-03	-3.82429059e-02	1.79777583e-02
-1.12538747e-02	-3.72676907e-02	1.04375990e-02
1.05330431e-02	-8.22371765e-03	1.86018124e-03
1.80075671e-02	1.99590452e-03	1.60694635e-02
-3.74045895e-03	-2.95226155e-02	1.33997057e-02
-4.36453683e-03	-2.83363976e-02	8.03364347e-03
3.30305011e-02	-1.44067831e-02	5.01019558e-03
2.47160990e-02	6.10330765e-03	6.26276481e-03
1.97331238e-02	-3.79983884e-02	1.84476749e-02
3.73659163e-02	-1.53176854e-02	1.39840495e-02
1.00245264e-02	-1.22505569e-02	1.60942720e-02
1.66144104e-04	-3.01176620e-02	1.23184556e-02
1.95560231e-02	-2.27743194e-02	2.47252650e-03
4.30142597e-03	-2.28514040e-02	1.49053599e-02
1.02296913e-02	-3.53648743e-02	1.79050470e-02
2.15148356e-03	-2.86711817e-02	2.18822410e-03
3.62349666e-02	-1.81779862e-03	1.56519215e-02
1.73545536e-02	-7.23545879e-03	1.63034921e-02
3.71370219e-02	-1.16464629e-02	1.46119321e-02
2.74656088e-02	-2.48723312e-02	1.71930507e-02
1.60599463e-02	-2.11845924e-02	2.01742525e-03
2.96784262e-02	-8.33888561e-03	1.28235114e-02
1.11180368e-02	-8.40622210e-03	1.26352813e-02
2.86993735e-02	-1.63352241e-03	1.01637326e-02
2.37086483e-02	-1.32792852e-02	6.30126241e-03
3.52240292e-02	6.12652284e-03	1.83271064e-02
2.48101541e-02	-2.52519767e-02	1.42417475e-02
2.52632998e-02	-2.06484480e-02	1.44613613e-02
3.90306626e-02	-7.38302861e-03	1.78449305e-02
1.22423266e-02	-2.24167649e-03	1.02803663e-02
3.51510011e-02	5.02243728e-04	1.38865157e-02
2.73659058e-02	-2.00541336e-02	7.98068193e-03
2.82947294e-02	-1.72971582e-02	1.38664097e-02
3.23319544e-02	-2.14267259e-02	5.95184616e-03
8.65799294e-03	-2.41704210e-02	1.54736318e-02
3.00194002e-02	-1.21673543e-02	1.17494502e-02
3.53707299e-02	1.44245819e-02	1.43893174e-02
2.73136866e-02	6.10063809e-03	1.69968217e-03
3.39626893e-02	1.13321005e-02	1.10309131e-02
2.74343613e-02	8.35583560e-03	1.34873712e-02
1.70939537e-02	-1.80879500e-02	1.53302217e-02
1.03953363e-02	-2.25116683e-02	1.81391802e-03
[...]
POINT_DATA 469
SCALARS Radius double 1
LOOKUP_TABLE default
2.00000000e-03
2.00000000e-03
2.00000000e-03
2.00000000e-03
2.00000000e-03
2.00000000e-03
2.00000000e-03
2.00000000e-03
2.00000000e-03
2.00000000e-03
2.00000000e-03
2.00000000e-03
2.00000000e-03
2.00000000e-03
2.00000000e-03
2.00000000e-03
2.00000000e-03
2.00000000e-03
2.00000000e-03
2.00000000e-03
2.00000000e-03
2.00000000e-03
2.00000000e-03
2.00000000e-03
2.00000000e-03
2.00000000e-03
2.00000000e-03
2.00000000e-03
2.00000000e-03
2.00000000e-03
2.00000000e-03
2.00000000e-03
2.00000000e-03
2.00000000e-03
2.00000000e-03
2.00000000e-03
2.00000000e-03
2.00000000e-03
2.00000000e-03
2.00000000e-03
2.00000000e-03
2.00000000e-03
2.00000000e-03
2.00000000e-03
2.00000000e-03
2.00000000e-03
2.00000000e-03
2.00000000e-03
2.00000000e-03
2.00000000e-03
2.00000000e-03
2.00000000e-03
2.00000000e-03
2.00000000e-03
2.00000000e-03
2.00000000e-03
2.00000000e-03
2.00000000e-03
2.00000000e-03
2.00000000e-03
2.00000000e-03
2.00000000e-03
2.00000000e-03
2.00000000e-03
2.00000000e-03
2.00000000e-03
2.00000000e-03
2.00000000e-03
2.00000000e-03
2.00000000e-03
2.00000000e-03
2.00000000e-03
2.00000000e-03
2.00000000e-03
2.00000000e-03
2.00000000e-03
2.00000000e-03
2.00000000e-03
2.00000000e-03
2.00000000e-03
2.00000000e-03
2.00000000e-03
2.00000000e-03
2.00000000e-03
2.00000000e-03
2.00000000e-03
2.00000000e-03
2.00000000e-03
2.00000000e-03
2.00000000e-03
2.00000000e-03
2.00000000e-03
2.00000000e-03
2.00000000e-03
2.00000000e-03
2.00000000e-03
2.00000000e-03
2.00000000e-03
2.00000000e-03
2.00000000e-03
2.00000000e-03
2.00000000e-03
2.00000000e-03
2.00000000e-03
2.00000000e-03
2.00000000e-03
2.00000000e-03
2.00000000e-03
2.00000000e-03
2.00000000e-03
2.00000000e-03
2.00000000e-03
2.00000000e-03
2.00000000e-03
2.00000000e-03
2.00000000e-03
2.00000000e-03
2.00000000e-03
2.00000000e-03
2.00000000e-03
2.00000000e-03
2.00000000e-03
2.00000000e-03
2.00000000e-03
2.00000000e-03
2.00000000e-03
2.00000000e-03
2.00000000e-03
2.00000000e-03
2.00000000e-03
2.00000000e-03
2.00000000e-03
2.00000000e-03
2.00000000e-03
2.00000000e-03
2.00000000e-03
2.00000000e-03
2.00000000e-03
2.00000000e-03
2.00000000e-03
2.00000000e-03
2.00000000e-03
2.00000000e-03
2.00000000e-03
2.00000000e-03
2.00000000e-03
2.00000000e-03
2.00000000e-03
2.00000000e-03
2.00000000e-03
2.00000000e-03
2.00000000e-03
2.00000000e-03
2.00000000e-03
2.00000000e-03
2.00000000e-03
2.00000000e-03
2.00000000e-03
2.00000000e-03
2.00000000e-03
2.00000000e-03
2.00000000e-03
2.00000000e-03
2.00000000e-03
2.00000000e-03
2.00000000e-03
2.00000000e-03
2.00000000e-03
2.00000000e-03
2.00000000e-03
2.00000000e-03
2.00000000e-03
2.00000000e-03
2.00000000e-03
2.00000000e-03
2.00000000e-03
2.00000000e-03
2.00000000e-03
2.00000000e-03
2.00000000e-03
2.00000000e-03
2.00000000e-03
2.00000000e-03
2.00000000e-03
2.00000000e-03
2.00000000e-03
2.00000000e-03
2.00000000e-03
2.00000000e-03
2.00000000e-03
2.00000000e-03
2.00000000e-03
2.00000000e-03
2.00000000e-03
2.00000000e-03
2.00000000e-03
2.00000000e-03
2.00000000e-03
2.00000000e-03
2.00000000e-03
2.00000000e-03
2.00000000e-03
2.00000000e-03
2.00000000e-03
2.00000000e-03
2.00000000e-03
2.00000000e-03
2.00000000e-03
2.00000000e-03
2.00000000e-03
2.00000000e-03
2.00000000e-03
2.00000000e-03
2.00000000e-03
2.00000000e-03
2.00000000e-03
2.00000000e-03
2.00000000e-03
2.00000000e-03
2.00000000e-03
2.00000000e-03
2.00000000e-03
2.00000000e-03
2.00000000e-03
2.00000000e-03
2.00000000e-03
2.00000000e-03
2.00000000e-03
2.00000000e-03
2.00000000e-03
2.00000000e-03
2.00000000e-03
2.00000000e-03
2.00000000e-03
2.00000000e-03
2.00000000e-03
2.00000000e-03
2.00000000e-03
2.00000000e-03
2.00000000e-03
2.00000000e-03
2.00000000e-03
2.00000000e-03
2.00000000e-03
2.00000000e-03
2.00000000e-03
2.00000000e-03
2.00000000e-03
2.00000000e-03
2.00000000e-03
2.00000000e-03
2.00000000e-03
2.00000000e-03
2.00000000e-03
2.00000000e-03
2.00000000e-03
2.00000000e-03
2.00000000e-03
2.00000000e-03
2.00000000e-03
2.00000000e-03
2.00000000e-03
2.00000000e-03
2.00000000e-03
2.00000000e-03
2.00000000e-03
2.00000000e-03
2.00000000e-03
2.00000000e-03
2.00000000e-03
2.00000000e-03
2.00000000e-03
2.00000000e-03
2.00000000e-03
2.00000000e-03
2.00000000e-03
2.00000000e-03
2.00000000e-03
2.00000000e-03
2.00000000e-03
2.00000000e-03
2.00000000e-03
2.00000000e-03
2.00000000e-03
2.00000000e-03
2.00000000e-03
2.00000000e-03
2.00000000e-03
2.00000000e-03
2.00000000e-03
2.00000000e-03
2.00000000e-03
2.00000000e-03
2.00000000e-03
2.00000000e-03
2.00000000e-03
2.00000000e-03
2.00000000e-03
2.00000000e-03
2.00000000e-03
2.00000000e-03
2.00000000e-03
2.00000000e-03
2.00000000e-03
2.00000000e-03
2.00000000e-03
2.00000000e-03
2.00000000e-03
2.00000000e-03
2.00000000e-03
2.00000000e-03
2.00000000e-03
2.00000000e-03
2.00000000e-03
2.00000000e-03
2.00000000e-03
2.00000000e-03
2.00000000e-03
2.00000000e-03
2.00000000e-03
2.00000000e-03
2.00000000e-03
2.00000000e-03
2.00000000e-03
2.00000000e-03
2.00000000e-03
2.00000000e-03
2.00000000e-03
2.00000000e-03
2.00000000e-03
2.00000000e-03
2.00000000e-03
2.00000000e-03
2.00000000e-03
2.00000000e-03
2.00000000e-03
2.00000000e-03
2.00000000e-03
2.00000000e-03
2.00000000e-03
2.00000000e-03
2.00000000e-03
2.00000000e-03
2.00000000e-03
2.00000000e-03
2.00000000e-03
2.00000000e-03
2.00000000e-03
2.00000000e-03
2.00000000e-03
2.00000000e-03
2.00000000e-03
2.00000000e-03
2.00000000e-03
2.00000000e-03
2.00000000e-03
2.00000000e-03
2.00000000e-03
2.00000000e-03
2.00000000e-03
2.00000000e-03
2.00000000e-03
2.00000000e-03
2.00000000e-03
2.00000000e-03
2.00000000e-03
2.00000000e-03
2.00000000e-03
2.00000000e-03
2.00000000e-03
2.00000000e-03
2.00000000e-03
2.00000000e-03
2.00000000e-03
2.00000000e-03
2.00000000e-03
2.00000000e-03
2.00000000e-03
2.00000000e-03
2.00000000e-03
2.00000000e-03
2.00000000e-03
2.00000000e-03
2.00000000e-03
2.00000000e-03
2.00000000e-03
2.00000000e-03
2.00000000e-03
2.00000000e-03
2.00000000e-03
2.00000000e-03
2.00000000e-03
2.00000000e-03
2.00000000e-03
2.00000000e-03
2.00000000e-03
2.00000000e-03
2.00000000e-03
2.00000000e-03
2.00000000e-03
2.00000000e-03
2.00000000e-03
2.00000000e-03
2.00000000e-03
2.00000000e-03
2.00000000e-03
2.00000000e-03
2.00000000e-03
2.00000000e-03
2.00000000e-03
2.00000000e-03
2.00000000e-03
2.00000000e-03
2.00000000e-03
2.00000000e-03
2.00000000e-03
2.00000000e-03
2.00000000e-03
2.00000000e-03
2.00000000e-03
2.00000000e-03
2.00000000e-03
2.00000000e-03
2.00000000e-03
2.00000000e-03
2.00000000e-03
2.00000000e-03
2.00000000e-03
2.00000000e-03
2.00000000e-03
2.00000000e-03
2.00000000e-03
2.00000000e-03
2.00000000e-03
2.00000000e-03
2.00000000e-03
2.00000000e-03
2.00000000e-03
2.00000000e-03
2.00000000e-03
2.00000000e-03
2.00000000e-03
2.00000000e-03
2.00000000e-03
2.00000000e-03
2.00000000e-03
2.00000000e-03
2.00000000e-03
2.00000000e-03
2.00000000e-03
2.00000000e-03
2.00000000e-03
2.00000000e-03
2.00000000e-03
2.00000000e-03
2.00000000e-03
2.00000000e-03
2.00000000e-03
2.00000000e-03
2.00000000e-03
2.00000000e-03
2.00000000e-03
2.00000000e-03
2.00000000e-03
2.00000000e-03
2.00000000e-03
2.00000000e-03
2.00000000e-03
2.00000000e-03
