# vtk DataFile Version 2.0
Particle data
ASCII
DATASET POLYDATA
POINTS 469 double
3.46124407e-02	-7.66688553e-03	9.21569249e-03
2.88698246e-02	-1.61923738e-02	1.36014002e-02
1.98022867e-02	-2.43320225e-02	5.63440554e-03
1.98869114e-02	1.51333626e-02	1.39523271e-02
2.40104772e-02	-1.50927132e-02	2.74483799e-03
3.96739001e-02	-5.57396445e-03	2.71936121e-03
3.34165399e-02	-7.93555477e-03	1.15908698e-02
2.04192852e-02	3.02087224e-03	1.77988979e-02
2.58379207e-02	-2.65134944e-02	1.81201654e-02
-1.00884521e-02	-3.67391267e-02	1.76038152e-02
4.01226031e-02	2.30557982e-03	1.87120255e-02
2.97988454e-02	-1.27074729e-02	1.80362845e-02
1.70049065e-02	-3.71996717e-02	1.18605883e-02
1.93448447e-02	-2.17267378e-02	3.09170174e-03
3.94360563e-02	-1.71570071e-03	1.46945136e-02
3.64225574e-03	-1.89482481e-02	1.27502255e-02
2.14351249e-02	1.02241668e-02	1.51720628e-02
2.97500643e-02	-2.06594071e-02	2.06944228e-03
2.14174238e-02	2.26831398e-03	1.19102142e-02
3.77141837e-02	3.96676452e-03	1.18156405e-02
3.55546223e-02	8.21169371e-03	2.02088149e-03
2.20795621e-02	-3.00181206e-02	1.80888931e-02
-1.67932682e-02	-3.25970950e-02	4.80454692e-03
1.62921680e-02	-1.51403087e-02	2.03036474e-03
1.51183357e-02	-2.33861935e-02	2.05795728e-03
-4.19541594e-03	-3.56494860e-02	8.91413205e-03
3.63129767e-02	1.55085386e-02	1.42148644e-02
2.72710295e-02	-2.43564318e-02	1.36696742e-02
2.22347703e-02	1.76025233e-02	1.07764283e-02
2.19885391e-02	-6.21048082e-03	1.43912706e-02
2.56507371e-02	-2.27144235e-02	1.01427261e-02
3.47261492e-02	-1.89920274e-02	2.08052504e-03
3.05582217e-02	-1.83255731e-02	5.58788321e-03
1.18861041e-02	-2.80779409e-02	1.82287048e-02
2.84328666e-03	-3.97239096e-02	1.14539715e-02
2.09099049e-02	-2.70526607e-02	1.18729144e-02
3.90175884e-02	-4.89637775e-03	6.84738022e-03
2.85131101e-02	1.71793805e-02	1.01058215e-02
3.04883922e-02	-1.08992418e-02	1.11291466e-02
1.87441252e-02	-1.82500104e-02	2.07667552e-03
3.08288222e-02	1.43147673e-02	8.55780948e-03
3.48523258e-02	-1.93538468e-02	1.50581502e-02
3.93004322e-04	-3.98982461e-02	2.11810707e-03
2.75644950e-02	-5.57334308e-03	1.39932344e-02
3.25737262e-03	-2.71982599e-02	1.71651106e-02
3.48719575e-02	7.47255485e-03	1.23273732e-02
2.91767394e-02	1.52646777e-03	1.48163169e-02
2.35397465e-02	-3.29226622e-03	7.15805422e-03
1.74306192e-02	-1.15655873e-02	1.45840098e-02
2.88663609e-02	-5.29768555e-03	1.80162977e-02
2.05651993e-02	-4.43418995e-03	1.85370474e-03
1.73765014e-02	-1.01399340e-02	7.86212870e-03
2.16503448e-02	1.38314829e-02	1.70826163e-02
2.05727855e-02	-2.99554267e-03	7.19067394e-03
-5.88058561e-03	-3.04186359e-02	1.24954492e-02
2.75811989e-02	1.96775480e-02	1.30129896e-02
-1.12596406e-02	-3.86311450e-02	8.82876861e-03
3.11302632e-02	4.04564863e-03	1.56262877e-02
3.99980226e-03	-3.47865223e-02	1.46120171e-02
-4.57832503e-04	-3.09949277e-02	1.61103595e-02
7.35316750e-03	-3.59967209e-02	1.79349089e-02
1.05955415e-02	-2.87366902e-02	9.89226754e-03
2.10011259e-02	-1.19340362e-02	1.77155724e-02
1.31897291e-02	-2.87597057e-03	1.23166388e-02
2.05138231e-02	-2.81720725e-02	3.74025765e-03
3.88800721e-02	7.90762767e-03	6.18912734e-03
-4.10858902e-03	-3.95340352e-02	3.93232749e-03
2.81048830e-02	-1.53488042e-02	1.81807735e-02
-4.94127457e-04	-3.54961613e-02	6.16230809e-03
1.31371324e-02	-3.93238467e-02	9.76548741e-03
3.33568956e-02	1.44704865e-02	6.32559618e-03
2.41261718e-02	-3.04294344e-02	2.31510188e-03
3.53238599e-02	-1.96920461e-03	1.83979603e-02
3.43278448e-02	1.27555886e-02	9.33275031e-03
3.72454265e-02	-1.41202642e-02	6.13917093e-03
3.72072906e-02	1.52189771e-02	1.80424813e-02
2.66592472e-02	8.69269037e-03	8.54248097e-03
2.87606971e-02	-8.00508900e-03	9.38456957e-03
1.25445309e-02	-3.77772920e-02	1.78505643e-02
2.94535860e-03	-2.19406285e-02	1.55583171e-02
3.16846760e-02	5.71078039e-03	5.88350915e-03
1.23469539e-02	-2.99225668e-02	6.49239813e-03
8.88967748e-03	-2.87109967e-02	1.95855861e-03
6.30629886e-03	-2.82999506e-02	1.80248431e-02
7.37225527e-03	-3.22966408e-02	2.31542407e-03
3.94053682e-02	7.01336095e-03	1.85297733e-03
3.40248852e-02	-1.49931703e-02	1.44735528e-02
-2.39396586e-03	-2.39052708e-02	9.88730238e-03
1.21462169e-02	-3.54158824e-02	6.34150522e-03
6.60282811e-03	-1.95425667e-02	6.05299914e-03
3.44734027e-02	1.02916199e-02	5.69279233e-03
3.05689380e-02	-4.74801395e-03	1.65563479e-03
2.49347369e-02	-2.89322028e-02	5.95893314e-03
3.63342004e-02	1.71461315e-02	1.09318240e-02
2.25337230e-02	-2.20005979e-02	6.92584306e-03
2.73877433e-02	-2.88771037e-02	8.28617976e-03
7.04552184e-03	-1.01627622e-02	6.59476210e-03
-2.82569118e-03	-3.43552428e-02	1.22911767e-02
1.65165155e-02	-2.17547776e-02	1.79835770e-02
1.93051815e-02	-2.02049282e-02	6.53748773e-03
1.56662898e-03	-2.73006140e-02	8.14765598e-03
-3.20033399e-04	-2.99243476e-02	1.25531254e-02
2.08649745e-02	5.47933038e-03	1.41144018e-02
1.71805878e-02	-3.62397505e-02	1.73240224e-02
2.07407358e-03	-3.17151810e-02	7.94864009e-03
2.28943743e-02	-2.25848731e-03	1.85137028e-03
1.48889017e-02	-1.05080596e-02	4.14417121e-03
1.25753836e-02	-1.35008522e-02	7.43551728e-03
-5.88965541e-03	-3.58221715e-02	1.80124936e-03
2.60322643e-02	-1.24262394e-02	5.05233500e-03
-1.58430149e-03	-2.54572433e-02	2.81753873e-03
3.42487116e-02	1.18082791e-02	1.79873272e-02
3.13228100e-02	4.25424933e-03	1.20806937e-02
1.60293611e-02	7.31345154e-04	1.98280568e-03
1.16895427e-02	-3.20124026e-02	1.45227186e-02
6.49731500e-04	-3.35985148e-02	2.04677016e-03
3.21644293e-02	1.96747360e-02	1.04322218e-02
-9.38480724e-03	-3.52720700e-02	6.49720346e-03
2.54612490e-02	-1.88822933e-02	1.08353232e-02
3.53755798e-02	-1.89817325e-02	6.98844158e-03
3.25557661e-02	-3.66442644e-04	1.94370512e-03
1.58227705e-02	-1.72010205e-02	1.59082231e-02
3.97703129e-02	6.02825407e-03	1.78232831e-02
9.90716775e-03	-3.95882336e-02	5.51537822e-03
2.01590106e-02	-3.58294420e-02	1.81970242e-02
3.71257270e-02	4.41372228e-03	4.61828994e-03
3.89296496e-02	-7.63730426e-03	5.59429314e-03
3.01626555e-02	-1.26588212e-02	7.45018047e-03
2.42845048e-02	1.01679363e-02	1.06255766e-02
2.27237909e-02	5.23936337e-03	1.97863047e-03
2.75075314e-02	1.23840307e-02	5.85930368e-03
2.23615576e-02	-3.46686172e-02	4.65297133e-03
3.04551577e-02	7.77646694e-03	1.80161824e-02
3.16263167e-02	-1.77561222e-02	1.28645496e-02
1.82049228e-02	-1.52547662e-02	8.03870123e-03
7.66949145e-03	-3.83015238e-02	1.30646445e-02
2.60034818e-02	-2.14729069e-02	4.15183857e-03
3.55020628e-02	-7.30342428e-03	1.80085785e-03
1.34863134e-02	-1.96460022e-02	1.26019462e-02
2.77521010e-02	1.55039440e-02	1.85648959e-02
7.73163791e-03	-3.22917213e-02	1.54603485e-02
3.53975698e-02	2.76524275e-03	2.54983808e-03
3.51729356e-02	2.96940256e-03	1.49606408e-02
3.07345331e-02	1.78838495e-02	6.28964997e-03
3.30248127e-02	-3.95902480e-03	8.28342592e-03
3.98582675e-02	2.60852804e-03	2.29919638e-03
-5.59359461e-03	-2.39319093e-02	5.75652036e-03
3.96950069e-02	-9.64966513e-04	2.04075872e-03
1.35520456e-02	-1.91944743e-02	8.56164311e-03
5.97657681e-03	-2.33553255e-02	1.61811613e-02
3.26603525e-02	-4.18666641e-04	1.10767688e-02
8.03269814e-03	-2.11722676e-02	9.85568071e-03
3.88307498e-02	-1.05759961e-02	1.14905478e-02
3.70869347e-02	1.02401645e-02	1.46546947e-02
2.38040291e-02	-1.81487443e-03	1.11757906e-02
1.85836428e-02	-5.34789654e-04	1.04815580e-02
3.77845731e-02	-1.18085636e-02	5.27499455e-03
2.04177115e-02	-1.59374383e-02	5.02714268e-03
1.43752072e-02	-3.68744416e-02	1.43843570e-02
2.77742599e-02	-3.05877617e-03	2.07487218e-03
2.67492872e-02	-2.57512219e-02	7.02250058e-03
3.85886446e-02	-8.75723608e-03	1.84469579e-03
9.80516104e-03	-3.53404237e-02	9.38268793e-03
2.39989531e-02	1.82220224e-02	1.80820971e-02
9.88522361e-03	-2.52700681e-02	1.94348250e-03
2.68529935e-02	-1.28284665e-02	1.25587855e-02
2.12569305e-02	-7.00213277e-03	1.04938713e-02
3.62988938e-02	1.22913483e-03	5.06706271e-03
1.49619680e-02	9.12240730e-03	1.78263183e-02
-1.88129721e-03	-2.60572759e-02	6.53192804e-03
3.93629254e-02	-6.97989977e-03	9.59495641e-03
-6.63096045e-04	-3.64456362e-02	1.04562572e-02
2.52559882e-02	-4.76779889e-04	1.15300325e-02
3.09509392e-02	-1.26792395e-02	1.45655551e-02
2.94297593e-02	-5.02996958e-03	5.91953264e-03
3.43491681e-02	-1.17760824e-02	1.23594969e-02
3.15779742e-02	-2.39032301e-02	1.80668608e-03
1.68305991e-02	-3.24298155e-02	1.82338675e-02
3.76970729e-02	-1.30998356e-02	1.80883998e-02
9.03247328e-03	-2.49609326e-02	6.24224418e-03
2.27452346e-02	1.28858961e-02	1.24561944e-02
9.67600975e-03	-3.21333952e-02	4.73583224e-03
2.69246498e-02	-8.53099621e-03	1.84578225e-02
1.11338138e-02	-6.79328041e-03	8.14343429e-03
1.60888747e-02	-2.69342503e-02	1.20624536e-02
3.76553844e-02	-1.31619381e-02	9.35878343e-03
3.63033083e-02	-1.88677390e-04	1.34724821e-02
3.20718916e-02	-2.39254069e-02	1.34509122e-02
2.69881951e-02	-5.68979213e-04	1.80747148e-02
3.68863197e-02	-1.59696746e-02	1.89029308e-03
7.27415349e-03	-1.51493880e-02	1.44074456e-02
1.13695301e-02	-2.68679400e-02	1.37853027e-02
-1.39372521e-02	-3.15765771e-02	1.18112885e-02
1.86929702e-02	5.65999894e-03	8.02907615e-03
1.62164654e-02	-2.17286293e-02	5.50677110e-03
2.28502157e-02	6.35421219e-03	1.79558738e-02
1.61047695e-02	-3.05848643e-02	1.03148921e-02
1.58660826e-02	-9.74882117e-03	1.07824027e-02
2.49936270e-02	-6.79434597e-03	8.41270535e-03
-4.85849831e-03	-3.18004413e-02	1.78621397e-02
3.74381627e-02	1.10113668e-02	1.11280775e-02
3.51708815e-02	7.24114178e-03	8.13097467e-03
3.18780362e-03	-1.42839532e-02	1.14972430e-02
2.09297484e-02	-3.53616020e-02	1.19705388e-02
2.17434600e-04	-2.31050875e-02	1.50125931e-02
2.93494330e-02	1.61837886e-03	8.99039466e-03
2.39268009e-02	1.27347137e-03	1.45601771e-02
3.52489372e-02	1.82277744e-02	1.77007585e-02
2.41416707e-02	-2.22655408e-02	1.46134056e-02
2.76999115e-02	1.22470783e-02	1.42948926e-02
2.84545329e-03	-3.94209689e-02	1.54850390e-02
7.38069043e-03	-1.64649393e-02	2.09972406e-03
4.52068063e-04	-3.62999594e-02	1.44033516e-02
4.77110625e-03	-2.93689562e-02	1.41014532e-02
2.81857745e-02	-1.81387718e-02	1.48247771e-02
1.84523722e-02	-2.53537326e-02	2.34698916e-03
[...]
POINT_DATA 469
SCALARS Radius double 1
LOOKUP_TABLE default
2.00000000e-03
2.00000000e-03
2.00000000e-03
2.00000000e-03
2.00000000e-03
2.00000000e-03
2.00000000e-03
2.00000000e-03
2.00000000e-03
2.00000000e-03
2.00000000e-03
2.00000000e-03
2.00000000e-03
2.00000000e-03
2.00000000e-03
2.00000000e-03
2.00000000e-03
2.00000000e-03
2.00000000e-03
2.00000000e-03
2.00000000e-03
2.00000000e-03
2.00000000e-03
2.00000000e-03
2.00000000e-03
2.00000000e-03
2.00000000e-03
2.00000000e-03
2.00000000e-03
2.00000000e-03
2.00000000e-03
2.00000000e-03
2.00000000e-03
2.00000000e-03
2.00000000e-03
2.00000000e-03
2.00000000e-03
2.00000000e-03
2.00000000e-03
2.00000000e-03
2.00000000e-03
2.00000000e-03
2.00000000e-03
2.00000000e-03
2.00000000e-03
2.00000000e-03
2.00000000e-03
2.00000000e-03
2.00000000e-03
2.00000000e-03
2.00000000e-03
2.00000000e-03
2.00000000e-03
2.00000000e-03
2.00000000e-03
2.00000000e-03
2.00000000e-03
2.00000000e-03
2.00000000e-03
2.00000000e-03
2.00000000e-03
2.00000000e-03
2.00000000e-03
2.00000000e-03
2.00000000e-03
2.00000000e-03
2.00000000e-03
2.00000000e-03
2.00000000e-03
2.00000000e-03
2.00000000e-03
2.00000000e-03
2.00000000e-03
2.00000000e-03
2.00000000e-03
2.00000000e-03
2.00000000e-03
2.00000000e-03
2.00000000e-03
2.00000000e-03
2.00000000e-03
2.00000000e-03
2.00000000e-03
2.00000000e-03
2.00000000e-03
2.00000000e-03
2.00000000e-03
2.00000000e-03
2.00000000e-03
2.00000000e-03
2.00000000e-03
2.00000000e-03
2.00000000e-03
2.00000000e-03
2.00000000e-03
2.00000000e-03
2.00000000e-03
2.00000000e-03
2.00000000e-03
2.00000000e-03
2.00000000e-03
2.00000000e-03
2.00000000e-03
2.00000000e-03
2.00000000e-03
2.00000000e-03
2.00000000e-03
2.00000000e-03
2.00000000e-03
2.00000000e-03
2.00000000e-03
2.00000000e-03
2.00000000e-03
2.00000000e-03
2.00000000e-03
2.00000000e-03
2.00000000e-03
2.00000000e-03
2.00000000e-03
2.00000000e-03
2.00000000e-03
2.00000000e-03
2.00000000e-03
2.00000000e-03
2.00000000e-03
2.00000000e-03
2.00000000e-03
2.00000000e-03
2.00000000e-03
2.00000000e-03
2.00000000e-03
2.00000000e-03
2.00000000e-03
2.00000000e-03
2.00000000e-03
2.00000000e-03
2.00000000e-03
2.00000000e-03
2.00000000e-03
2.00000000e-03
2.00000000e-03
2.00000000e-03
2.00000000e-03
2.00000000e-03
2.00000000e-03
2.00000000e-03
2.00000000e-03
2.00000000e-03
2.00000000e-03
2.00000000e-03
2.00000000e-03
2.00000000e-03
2.00000000e-03
2.00000000e-03
2.00000000e-03
2.00000000e-03
2.00000000e-03
2.00000000e-03
2.00000000e-03
2.00000000e-03
2.00000000e-03
2.00000000e-03
2.00000000e-03
2.00000000e-03
2.00000000e-03
2.00000000e-03
2.00000000e-03
2.00000000e-03
2.00000000e-03
2.00000000e-03
2.00000000e-03
2.00000000e-03
2.00000000e-03
2.00000000e-03
2.00000000e-03
2.00000000e-03
2.00000000e-03
2.00000000e-03
2.00000000e-03
2.00000000e-03
2.00000000e-03
2.00000000e-03
2.00000000e-03
2.00000000e-03
2.00000000e-03
2.00000000e-03
2.00000000e-03
2.00000000e-03
2.00000000e-03
2.00000000e-03
2.00000000e-03
2.00000000e-03
2.00000000e-03
2.00000000e-03
2.00000000e-03
2.00000000e-03
2.00000000e-03
2.00000000e-03
2.00000000e-03
2.00000000e-03
2.00000000e-03
2.00000000e-03
2.00000000e-03
2.00000000e-03
2.00000000e-03
2.00000000e-03
2.00000000e-03
2.00000000e-03
2.00000000e-03
2.00000000e-03
2.00000000e-03
2.00000000e-03
2.00000000e-03
2.00000000e-03
2.00000000e-03
2.00000000e-03
2.00000000e-03
2.00000000e-03
2.00000000e-03
2.00000000e-03
2.00000000e-03
2.00000000e-03
2.00000000e-03
2.00000000e-03
2.00000000e-03
2.00000000e-03
2.00000000e-03
2.00000000e-03
2.00000000e-03
2.00000000e-03
2.00000000e-03
2.00000000e-03
2.00000000e-03
2.00000000e-03
2.00000000e-03
2.00000000e-03
2.00000000e-03
2.00000000e-03
2.00000000e-03
2.00000000e-03
2.00000000e-03
2.00000000e-03
2.00000000e-03
2.00000000e-03
2.00000000e-03
2.00000000e-03
2.00000000e-03
2.00000000e-03
2.00000000e-03
2.00000000e-03
2.00000000e-03
2.00000000e-03
2.00000000e-03
2.00000000e-03
2.00000000e-03
2.00000000e-03
2.00000000e-03
2.00000000e-03
2.00000000e-03
2.00000000e-03
2.00000000e-03
2.00000000e-03
2.00000000e-03
2.00000000e-03
2.00000000e-03
2.00000000e-03
2.00000000e-03
2.00000000e-03
2.00000000e-03
2.00000000e-03
2.00000000e-03
2.00000000e-03
2.00000000e-03
2.00000000e-03
2.00000000e-03
2.00000000e-03
2.00000000e-03
2.00000000e-03
2.00000000e-03
2.00000000e-03
2.00000000e-03
2.00000000e-03
2.00000000e-03
2.00000000e-03
2.00000000e-03
2.00000000e-03
2.00000000e-03
2.00000000e-03
2.00000000e-03
2.00000000e-03
2.00000000e-03
2.00000000e-03
2.00000000e-03
2.00000000e-03
2.00000000e-03
2.00000000e-03
2.00000000e-03
2.00000000e-03
2.00000000e-03
2.00000000e-03
2.00000000e-03
2.00000000e-03
2.00000000e-03
2.00000000e-03
2.00000000e-03
2.00000000e-03
2.00000000e-03
2.00000000e-03
2.00000000e-03
2.00000000e-03
2.00000000e-03
2.00000000e-03
2.00000000e-03
2.00000000e-03
2.00000000e-03
2.00000000e-03
2.00000000e-03
2.00000000e-03
2.00000000e-03
2.00000000e-03
2.00000000e-03
2.00000000e-03
2.00000000e-03
2.00000000e-03
2.00000000e-03
2.00000000e-03
2.00000000e-03
2.00000000e-03
2.00000000e-03
2.00000000e-03
2.00000000e-03
2.00000000e-03
2.00000000e-03
2.00000000e-03
2.00000000e-03
2.00000000e-03
2.00000000e-03
2.00000000e-03
2.00000000e-03
2.00000000e-03
2.00000000e-03
2.00000000e-03
2.00000000e-03
2.00000000e-03
2.00000000e-03
2.00000000e-03
2.00000000e-03
2.00000000e-03
2.00000000e-03
2.00000000e-03
2.00000000e-03
2.00000000e-03
2.00000000e-03
2.00000000e-03
2.00000000e-03
2.00000000e-03
2.00000000e-03
2.00000000e-03
2.00000000e-03
2.00000000e-03
2.00000000e-03
2.00000000e-03
2.00000000e-03
2.00000000e-03
2.00000000e-03
2.00000000e-03
2.00000000e-03
2.00000000e-03
2.00000000e-03
2.00000000e-03
2.00000000e-03
2.00000000e-03
2.00000000e-03
2.00000000e-03
2.00000000e-03
2.00000000e-03
2.00000000e-03
2.00000000e-03
2.00000000e-03
2.00000000e-03
2.00000000e-03
2.00000000e-03
2.00000000e-03
2.00000000e-03
2.00000000e-03
2.00000000e-03
2.00000000e-03
2.00000000e-03
2.00000000e-03
2.00000000e-03
2.00000000e-03
2.00000000e-03
2.00000000e-03
2.00000000e-03
2.00000000e-03
2.00000000e-03
2.00000000e-03
2.00000000e-03
2.00000000e-03
2.00000000e-03
2.00000000e-03
2.00000000e-03
2.00000000e-03
2.00000000e-03
2.00000000e-03
2.00000000e-03
2.00000000e-03
2.00000000e-03
2.00000000e-03
2.00000000e-03
2.00000000e-03
2.00000000e-03
2.00000000e-03
2.00000000e-03
2.00000000e-03
2.00000000e-03
2.00000000e-03
2.00000000e-03
2.00000000e-03
2.00000000e-03
2.00000000e-03
2.00000000e-03
2.00000000e-03
2.00000000e-03
2.00000000e-03
2.00000000e-03
2.00000000e-03
2.00000000e-03
2.00000000e-03
2.00000000e-03
2.00000000e-03
2.00000000e-03
2.00000000e-03
2.00000000e-03
2.00000000e-03
2.00000000e-03
2.00000000e-03
2.00000000e-03
2.00000000e-03
2.00000000e-03
2.00000000e-03
2.00000000e-03
2.00000000e-03
2.00000000e-03
2.00000000e-03
2.00000000e-03
2.00000000e-03
2.00000000e-03
2.00000000e-03
2.00000000e-03
2.00000000e-03
2.00000000e-03
2.00000000e-03
2.00000000e-03
2.00000000e-03
2.00000000e-03
2.00000000e-03
2.00000000e-03
2.00000000e-03
2.00000000e-03
2.00000000e-03
2.00000000e-03
2.00000000e-03
2.00000000e-03
2.00000000e-03
2.00000000e-03
2.00000000e-03
2.00000000e-03
2.00000000e-03
