# vtk DataFile Version 2.0
Particle data
ASCII
DATASET POLYDATA
POINTS 469 double
3.35574000e-02	1.15788000e-02	8.53806000e-03
3.25035000e-02	9.12362000e-04	1.45387000e-02
2.85036000e-02	-9.29373000e-03	6.13172000e-03
1.65344000e-03	-3.37322000e-02	1.00782000e-02
2.27740000e-02	-5.22795000e-03	1.99999000e-03
3.48424000e-02	1.67145000e-02	2.86444000e-03
3.13396000e-02	9.10418000e-03	1.22521000e-02
7.25437000e-03	-2.89292000e-02	1.81012000e-02
3.61016000e-02	-7.74109000e-03	1.81001000e-02
1.31839000e-02	-3.56517000e-02	1.81007000e-02
3.00406000e-02	1.86916000e-02	1.53046000e-02
3.12727000e-02	2.78932000e-03	1.81003000e-02
3.51218000e-02	-1.90442000e-02	1.22759000e-02
2.54178000e-02	-7.66789000e-03	3.74856000e-03
3.36164000e-02	1.70554000e-02	1.45724000e-02
8.06494000e-03	-3.91375000e-02	1.00026000e-02
9.38052000e-03	-2.59916000e-02	6.06817000e-03
3.58441000e-02	-1.27795000e-03	1.99972000e-03
7.91937000e-03	-2.73332000e-02	1.27572000e-02
2.34242000e-02	9.47136000e-03	9.61177000e-03
1.93326000e-02	7.83498000e-03	1.99978000e-03
3.46183000e-02	-1.20573000e-02	1.77562000e-02
-5.38041000e-04	-3.99871000e-02	2.00734000e-03
1.67798000e-02	-1.43973000e-02	2.00218000e-03
2.33896000e-02	-1.06365000e-02	1.99874000e-03
1.60503000e-02	-3.22041000e-02	8.55672000e-03
-6.00661000e-03	-2.92563000e-02	1.33137000e-02
3.58295000e-02	-5.90126000e-03	1.33893000e-02
-5.62532000e-03	-3.61712000e-02	1.00907000e-02
1.04766000e-02	-2.54385000e-02	1.52819000e-02
3.27854000e-02	-5.68361000e-03	1.05551000e-02
3.99216000e-02	2.05741000e-03	1.99995000e-03
3.47120000e-02	1.68465000e-04	5.55282000e-03
2.48912000e-02	-1.55696000e-02	1.81002000e-02
2.40587000e-02	-3.18603000e-02	1.08259000e-02
3.17369000e-02	-9.44901000e-03	1.14030000e-02
3.42772000e-02	1.61553000e-02	6.78448000e-03
-1.26958000e-02	-3.78172000e-02	9.81883000e-03
3.18035000e-02	5.25364000e-03	1.12753000e-02
1.76873000e-02	-1.05089000e-02	2.27674000e-03
-8.53069000e-03	-3.30949000e-02	1.05536000e-02
3.98944000e-02	1.94953000e-03	1.44274000e-02
2.36561000e-02	-3.22270000e-02	2.50157000e-03
1.86277000e-02	-6.62853000e-03	1.79272000e-02
1.77039000e-02	-2.33215000e-02	1.66987000e-02
1.21623000e-02	-3.23631000e-03	1.12284000e-02
1.82580000e-02	-7.39399000e-03	1.24741000e-02
1.26803000e-03	-2.36068000e-02	1.12995000e-02
4.66515000e-03	-2.63225000e-02	1.06233000e-02
2.31426000e-02	6.48768000e-03	1.72343000e-02
8.07637000e-03	-2.79015000e-02	2.75359000e-03
9.74483000e-03	-2.16161000e-02	7.84763000e-03
-1.69547000e-02	-3.61397000e-02	1.04671000e-02
9.22504000e-03	-2.41449000e-02	2.00066000e-03
1.05545000e-02	-3.51132000e-02	1.14830000e-02
-1.21356000e-03	-3.45829000e-02	1.52139000e-02
1.18640000e-02	-3.81507000e-02	9.23330000e-03
1.59872000e-02	-4.12573000e-03	1.30361000e-02
2.45623000e-02	-2.66853000e-02	1.44597000e-02
1.81263000e-02	-2.69266000e-02	1.50186000e-02
2.62685000e-02	-2.50589000e-02	1.81003000e-02
2.42849000e-02	-1.76199000e-02	1.04824000e-02
1.94907000e-02	-1.08503000e-02	1.80942000e-02
5.66901000e-04	-3.74425000e-02	9.05585000e-03
3.23144000e-02	-1.12016000e-02	4.71755000e-03
2.42925000e-02	1.54872000e-02	1.05961000e-02
2.02162000e-02	-3.45072000e-02	3.21997000e-03
3.19625000e-02	-1.15018000e-03	1.81003000e-02
1.91277000e-02	-3.18703000e-02	6.02363000e-03
3.34144000e-02	-2.18940000e-02	1.00010000e-02
-7.58670000e-04	-2.24711000e-02	4.21961000e-03
3.62923000e-02	-1.09502000e-02	1.99995000e-03
2.92524000e-02	1.05565000e-02	1.81010000e-02
-6.88985000e-03	-2.73237000e-02	9.83797000e-03
3.92701000e-02	6.98491000e-03	5.98778000e-03
-2.49245000e-03	-2.76280000e-02	1.80021000e-02
5.87394000e-03	-2.76713000e-02	7.03077000e-03
2.74453000e-02	3.69520000e-03	1.09086000e-02
3.29245000e-02	-2.26904000e-02	1.81003000e-02
6.54759000e-03	-3.94526000e-02	1.81001000e-02
9.86550000e-03	-1.20250000e-02	9.28266000e-03
2.62633000e-02	-1.64173000e-02	6.83109000e-03
2.35708000e-02	-1.87258000e-02	2.00029000e-03
2.04808000e-02	-2.00889000e-02	1.81009000e-02
2.48308000e-02	-2.25126000e-02	2.26626000e-03
1.73459000e-02	1.34750000e-02	2.22562000e-03
3.68833000e-02	4.57320000e-03	1.46401000e-02
3.06268000e-03	-3.98495000e-02	1.10494000e-02
2.98061000e-02	-2.11688000e-02	6.49494000e-03
1.59983000e-02	-2.97125000e-02	4.19507000e-03
3.22537000e-03	-1.36913000e-02	5.98252000e-03
2.71205000e-02	4.59663000e-03	2.09831000e-03
3.58550000e-02	-1.01891000e-02	6.45716000e-03
-1.19051000e-02	-3.04921000e-02	2.12021000e-03
2.95575000e-02	-5.48124000e-03	6.71292000e-03
3.90150000e-02	-8.52161000e-03	8.33314000e-03
1.15736000e-04	-3.99775000e-02	5.95357000e-03
1.69586000e-02	-3.21322000e-02	1.24539000e-02
2.37355000e-02	-9.47731000e-03	1.80998000e-02
2.51547000e-02	-7.31090000e-03	7.72236000e-03
1.38120000e-02	-2.90510000e-02	7.47845000e-03
1.58176000e-02	-2.86223000e-02	1.09139000e-02
-7.86036000e-03	-3.61708000e-02	1.63769000e-02
3.49440000e-02	-1.94363000e-02	1.69469000e-02
1.78561000e-02	-2.81612000e-02	7.37858000e-03
4.64423000e-03	-1.67873000e-02	2.96193000e-03
1.40261000e-02	-2.22548000e-02	6.54409000e-03
1.32558000e-02	-2.58971000e-02	5.08185000e-03
1.67219000e-02	-3.29803000e-02	2.00644000e-03
2.53759000e-02	-2.00914000e-04	5.40532000e-03
1.03300000e-02	-3.57955000e-02	1.99987000e-03
1.68142000e-02	1.18403000e-03	1.75518000e-02
8.82705000e-03	-1.45821000e-02	1.55248000e-02
3.80671000e-03	-3.33962000e-02	1.99888000e-03
2.69162000e-02	-1.91668000e-02	1.44239000e-02
1.97729000e-02	-2.66952000e-02	1.99940000e-03
-1.87213000e-02	-3.28596000e-02	1.71054000e-02
1.13565000e-02	-3.82861000e-02	4.95648000e-03
2.90301000e-02	-4.12141000e-03	1.04366000e-02
3.97401000e-02	3.48592000e-03	7.86771000e-03
2.59566000e-02	8.95077000e-03	2.00162000e-03
1.98109000e-02	-1.29362000e-02	1.46920000e-02
2.64075000e-02	1.78872000e-02	1.68141000e-02
3.13179000e-02	-2.48218000e-02	5.89093000e-03
3.69537000e-02	-1.52846000e-02	1.81012000e-02
2.05710000e-02	1.10537000e-02	7.13722000e-03
3.68464000e-02	1.31042000e-02	6.33030000e-03
3.17179000e-02	4.94080000e-03	7.28906000e-03
-1.94208000e-03	-3.51832000e-02	1.13231000e-02
1.99354000e-03	-2.65481000e-02	2.16492000e-03
9.10281000e-04	-3.06377000e-02	2.00009000e-03
3.75931000e-02	-1.36028000e-02	4.69631000e-03
1.84811000e-02	-2.41548000e-03	1.80999000e-02
3.65242000e-02	-3.66007000e-05	1.35969000e-02
1.67702000e-02	-1.16438000e-02	8.21297000e-03
2.85990000e-02	-2.78199000e-02	1.34503000e-02
3.26706000e-02	-4.04534000e-03	3.88965000e-03
3.29123000e-02	1.33052000e-02	1.99971000e-03
1.43398000e-02	-2.12209000e-02	1.07399000e-02
3.21156000e-03	-2.85232000e-02	1.54132000e-02
2.44168000e-02	-2.27923000e-02	1.53740000e-02
2.14950000e-02	1.09603000e-02	3.24664000e-03
2.03207000e-02	6.43897000e-03	1.19100000e-02
-1.63895000e-02	-3.64516000e-02	2.49975000e-03
2.88148000e-02	7.00189000e-03	9.12576000e-03
2.39710000e-02	1.61933000e-02	2.00373000e-03
3.77067000e-03	-3.98117000e-02	2.02708000e-03
3.04464000e-02	1.64607000e-02	2.00003000e-03
1.94591000e-02	-1.45829000e-02	8.57510000e-03
1.42959000e-02	-3.00074000e-02	1.47279000e-02
2.05512000e-02	1.59954000e-03	6.45341000e-03
1.76235000e-02	-2.19386000e-02	8.48407000e-03
3.81858000e-02	1.14121000e-02	1.21327000e-02
7.32416000e-03	-1.07607000e-02	1.57944000e-02
3.60044000e-03	-3.05501000e-02	8.63704000e-03
4.40348000e-03	-3.48125000e-02	1.41538000e-02
3.85778000e-02	1.03712000e-02	3.97494000e-03
2.07720000e-02	-6.93707000e-03	5.31922000e-03
3.33293000e-02	-2.20768000e-02	1.41687000e-02
2.39783000e-02	1.36862000e-03	2.00057000e-03
3.57631000e-02	-5.90414000e-03	7.29487000e-03
3.70637000e-02	1.35024000e-02	1.99980000e-03
2.88474000e-02	-2.45305000e-02	9.21945000e-03
-4.26105000e-03	-3.59020000e-02	1.81000000e-02
2.05100000e-02	-1.59228000e-02	1.99995000e-03
2.87893000e-02	1.01518000e-04	1.28651000e-02
1.68311000e-03	-2.86642000e-02	5.67629000e-03
2.53668000e-02	1.11425000e-02	5.70217000e-03
-5.14411000e-04	-3.73029000e-02	1.80783000e-02
6.14539000e-03	-3.94834000e-02	6.43975000e-03
3.61652000e-02	1.42134000e-02	1.01158000e-02
1.99193000e-02	-3.02009000e-02	1.01313000e-02
3.43883000e-03	-1.89391000e-02	1.36204000e-02
3.29194000e-02	4.85119000e-03	1.50946000e-02
2.57212000e-02	7.23656000e-03	6.48914000e-03
3.50566000e-02	7.43604000e-03	1.21415000e-02
3.99298000e-02	-2.18364000e-03	2.06843000e-03
3.20151000e-02	-1.65923000e-02	1.81007000e-02
3.89605000e-02	7.44063000e-03	1.80879000e-02
2.18169000e-02	-1.75665000e-02	7.33507000e-03
-6.03189000e-03	-3.51247000e-02	4.54018000e-03
2.63341000e-02	-1.99404000e-02	4.93496000e-03
2.55835000e-02	3.43962000e-03	1.81001000e-02
-7.47380000e-03	-3.92845000e-02	1.38754000e-02
2.70025000e-02	-1.30393000e-02	1.17813000e-02
3.90427000e-02	8.31376000e-03	9.75319000e-03
2.82190000e-02	1.15487000e-02	1.27857000e-02
3.98048000e-02	-3.54191000e-03	1.44576000e-02
2.24295000e-02	-1.98545000e-03	1.75398000e-02
3.94205000e-02	6.72633000e-03	1.99955000e-03
7.76703000e-03	-3.64280000e-02	1.55945000e-02
2.33343000e-02	-1.73887000e-02	1.43613000e-02
-5.31867000e-04	-3.99577000e-02	1.50496000e-02
-1.58964000e-02	-3.67039000e-02	1.65734000e-02
2.29128000e-02	-1.02560000e-02	5.95147000e-03
3.82050000e-04	-3.10651000e-02	1.41755000e-02
2.95923000e-02	-1.58495000e-02	1.06017000e-02
1.01857000e-02	-2.84968000e-02	9.08740000e-03
1.67138000e-02	-2.63177000e-03	9.10955000e-03
1.55754000e-02	-3.24469000e-02	1.80961000e-02
1.84075000e-03	-8.59943000e-03	1.21593000e-02
6.92826000e-03	-8.44588000e-03	1.11800000e-02
2.51677000e-03	-3.99126000e-02	1.80789000e-02
3.67730000e-02	-1.54700000e-02	1.15761000e-02
1.41319000e-02	-3.40002000e-02	1.45837000e-02
8.39553000e-03	-1.47029000e-02	6.69993000e-03
-6.36063000e-03	-3.33816000e-02	1.39259000e-02
-6.89638000e-03	-3.13469000e-02	7.34740000e-03
3.21484000e-02	-6.98925000e-03	1.45302000e-02
-1.69604000e-03	-3.12491000e-02	1.02206000e-02
2.59198000e-02	-3.04284000e-02	1.48665000e-02
1.57772000e-02	-2.63770000e-02	1.99968000e-03
2.15503000e-02	-2.94061000e-02	1.37425000e-02
2.11862000e-02	-2.46233000e-02	1.38691000e-02
3.39895000e-02	-2.76480000e-03	1.50540000e-02
2.79421000e-02	-1.06244000e-02	2.11559000e-03
[...]
POINT_DATA 469
SCALARS Radius double 1
LOOKUP_TABLE default
2.00000000e-03
2.00000000e-03
2.00000000e-03
2.00000000e-03
2.00000000e-03
2.00000000e-03
2.00000000e-03
2.00000000e-03
2.00000000e-03
2.00000000e-03
2.00000000e-03
2.00000000e-03
2.00000000e-03
2.00000000e-03
2.00000000e-03
2.00000000e-03
2.00000000e-03
2.00000000e-03
2.00000000e-03
2.00000000e-03
2.00000000e-03
2.00000000e-03
2.00000000e-03
2.00000000e-03
2.00000000e-03
2.00000000e-03
2.00000000e-03
2.00000000e-03
2.00000000e-03
2.00000000e-03
2.00000000e-03
2.00000000e-03
2.00000000e-03
2.00000000e-03
2.00000000e-03
2.00000000e-03
2.00000000e-03
2.00000000e-03
2.00000000e-03
2.00000000e-03
2.00000000e-03
2.00000000e-03
2.00000000e-03
2.00000000e-03
2.00000000e-03
2.00000000e-03
2.00000000e-03
2.00000000e-03
2.00000000e-03
2.00000000e-03
2.00000000e-03
2.00000000e-03
2.00000000e-03
2.00000000e-03
2.00000000e-03
2.00000000e-03
2.00000000e-03
2.00000000e-03
2.00000000e-03
2.00000000e-03
2.00000000e-03
2.00000000e-03
2.00000000e-03
2.00000000e-03
2.00000000e-03
2.00000000e-03
2.00000000e-03
2.00000000e-03
2.00000000e-03
2.00000000e-03
2.00000000e-03
2.00000000e-03
2.00000000e-03
2.00000000e-03
2.00000000e-03
2.00000000e-03
2.00000000e-03
2.00000000e-03
2.00000000e-03
2.00000000e-03
2.00000000e-03
2.00000000e-03
2.00000000e-03
2.00000000e-03
2.00000000e-03
2.00000000e-03
2.00000000e-03
2.00000000e-03
2.00000000e-03
2.00000000e-03
2.00000000e-03
2.00000000e-03
2.00000000e-03
2.00000000e-03
2.00000000e-03
2.00000000e-03
2.00000000e-03
2.00000000e-03
2.00000000e-03
2.00000000e-03
2.00000000e-03
2.00000000e-03
2.00000000e-03
2.00000000e-03
2.00000000e-03
2.00000000e-03
2.00000000e-03
2.00000000e-03
2.00000000e-03
2.00000000e-03
2.00000000e-03
2.00000000e-03
2.00000000e-03
2.00000000e-03
2.00000000e-03
2.00000000e-03
2.00000000e-03
2.00000000e-03
2.00000000e-03
2.00000000e-03
2.00000000e-03
2.00000000e-03
2.00000000e-03
2.00000000e-03
2.00000000e-03
2.00000000e-03
2.00000000e-03
2.00000000e-03
2.00000000e-03
2.00000000e-03
2.00000000e-03
2.00000000e-03
2.00000000e-03
2.00000000e-03
2.00000000e-03
2.00000000e-03
2.00000000e-03
2.00000000e-03
2.00000000e-03
2.00000000e-03
2.00000000e-03
2.00000000e-03
2.00000000e-03
2.00000000e-03
2.00000000e-03
2.00000000e-03
2.00000000e-03
2.00000000e-03
2.00000000e-03
2.00000000e-03
2.00000000e-03
2.00000000e-03
2.00000000e-03
2.00000000e-03
2.00000000e-03
2.00000000e-03
2.00000000e-03
2.00000000e-03
2.00000000e-03
2.00000000e-03
2.00000000e-03
2.00000000e-03
2.00000000e-03
2.00000000e-03
2.00000000e-03
2.00000000e-03
2.00000000e-03
2.00000000e-03
2.00000000e-03
2.00000000e-03
2.00000000e-03
2.00000000e-03
2.00000000e-03
2.00000000e-03
2.00000000e-03
2.00000000e-03
2.00000000e-03
2.00000000e-03
2.00000000e-03
2.00000000e-03
2.00000000e-03
2.00000000e-03
2.00000000e-03
2.00000000e-03
2.00000000e-03
2.00000000e-03
2.00000000e-03
2.00000000e-03
2.00000000e-03
2.00000000e-03
2.00000000e-03
2.00000000e-03
2.00000000e-03
2.00000000e-03
2.00000000e-03
2.00000000e-03
2.00000000e-03
2.00000000e-03
2.00000000e-03
2.00000000e-03
2.00000000e-03
2.00000000e-03
2.00000000e-03
2.00000000e-03
2.00000000e-03
2.00000000e-03
2.00000000e-03
2.00000000e-03
2.00000000e-03
2.00000000e-03
2.00000000e-03
2.00000000e-03
2.00000000e-03
2.00000000e-03
2.00000000e-03
2.00000000e-03
2.00000000e-03
2.00000000e-03
2.00000000e-03
2.00000000e-03
2.00000000e-03
2.00000000e-03
2.00000000e-03
2.00000000e-03
2.00000000e-03
2.00000000e-03
2.00000000e-03
2.00000000e-03
2.00000000e-03
2.00000000e-03
2.00000000e-03
2.00000000e-03
2.00000000e-03
2.00000000e-03
2.00000000e-03
2.00000000e-03
2.00000000e-03
2.00000000e-03
2.00000000e-03
2.00000000e-03
2.00000000e-03
2.00000000e-03
2.00000000e-03
2.00000000e-03
2.00000000e-03
2.00000000e-03
2.00000000e-03
2.00000000e-03
2.00000000e-03
2.00000000e-03
2.00000000e-03
2.00000000e-03
2.00000000e-03
2.00000000e-03
2.00000000e-03
2.00000000e-03
2.00000000e-03
2.00000000e-03
2.00000000e-03
2.00000000e-03
2.00000000e-03
2.00000000e-03
2.00000000e-03
2.00000000e-03
2.00000000e-03
2.00000000e-03
2.00000000e-03
2.00000000e-03
2.00000000e-03
2.00000000e-03
2.00000000e-03
2.00000000e-03
2.00000000e-03
2.00000000e-03
2.00000000e-03
2.00000000e-03
2.00000000e-03
2.00000000e-03
2.00000000e-03
2.00000000e-03
2.00000000e-03
2.00000000e-03
2.00000000e-03
2.00000000e-03
2.00000000e-03
2.00000000e-03
2.00000000e-03
2.00000000e-03
2.00000000e-03
2.00000000e-03
2.00000000e-03
2.00000000e-03
2.00000000e-03
2.00000000e-03
2.00000000e-03
2.00000000e-03
2.00000000e-03
2.00000000e-03
2.00000000e-03
2.00000000e-03
2.00000000e-03
2.00000000e-03
2.00000000e-03
2.00000000e-03
2.00000000e-03
2.00000000e-03
2.00000000e-03
2.00000000e-03
2.00000000e-03
2.00000000e-03
2.00000000e-03
2.00000000e-03
2.00000000e-03
2.00000000e-03
2.00000000e-03
2.00000000e-03
2.00000000e-03
2.00000000e-03
2.00000000e-03
2.00000000e-03
2.00000000e-03
2.00000000e-03
2.00000000e-03
2.00000000e-03
2.00000000e-03
2.00000000e-03
2.00000000e-03
2.00000000e-03
2.00000000e-03
2.00000000e-03
2.00000000e-03
2.00000000e-03
2.00000000e-03
2.00000000e-03
2.00000000e-03
2.00000000e-03
2.00000000e-03
2.00000000e-03
2.00000000e-03
2.00000000e-03
2.00000000e-03
2.00000000e-03
2.00000000e-03
2.00000000e-03
2.00000000e-03
2.00000000e-03
2.00000000e-03
2.00000000e-03
2.00000000e-03
2.00000000e-03
2.00000000e-03
2.00000000e-03
2.00000000e-03
2.00000000e-03
2.00000000e-03
2.00000000e-03
2.00000000e-03
2.00000000e-03
2.00000000e-03
2.00000000e-03
2.00000000e-03
2.00000000e-03
2.00000000e-03
2.00000000e-03
2.00000000e-03
2.00000000e-03
2.00000000e-03
2.00000000e-03
2.00000000e-03
2.00000000e-03
2.00000000e-03
2.00000000e-03
2.00000000e-03
2.00000000e-03
2.00000000e-03
2.00000000e-03
2.00000000e-03
2.00000000e-03
2.00000000e-03
2.00000000e-03
2.00000000e-03
2.00000000e-03
2.00000000e-03
2.00000000e-03
2.00000000e-03
2.00000000e-03
2.00000000e-03
2.00000000e-03
2.00000000e-03
2.00000000e-03
2.00000000e-03
2.00000000e-03
2.00000000e-03
2.00000000e-03
2.00000000e-03
2.00000000e-03
2.00000000e-03
2.00000000e-03
2.00000000e-03
2.00000000e-03
2.00000000e-03
2.00000000e-03
2.00000000e-03
2.00000000e-03
2.00000000e-03
2.00000000e-03
2.00000000e-03
2.00000000e-03
2.00000000e-03
2.00000000e-03
2.00000000e-03
2.00000000e-03
2.00000000e-03
2.00000000e-03
2.00000000e-03
2.00000000e-03
2.00000000e-03
2.00000000e-03
2.00000000e-03
2.00000000e-03
2.00000000e-03
2.00000000e-03
2.00000000e-03
2.00000000e-03
2.00000000e-03
2.00000000e-03
2.00000000e-03
2.00000000e-03
2.00000000e-03
2.00000000e-03
2.00000000e-03
2.00000000e-03
2.00000000e-03
2.00000000e-03
2.00000000e-03
2.00000000e-03
2.00000000e-03
2.00000000e-03
2.00000000e-03
2.00000000e-03
2.00000000e-03
2.00000000e-03
2.00000000e-03
2.00000000e-03
2.00000000e-03
2.00000000e-03
2.00000000e-03
2.00000000e-03
2.00000000e-03
2.00000000e-03
2.00000000e-03
2.00000000e-03
2.00000000e-03
2.00000000e-03
2.00000000e-03
2.00000000e-03
2.00000000e-03
2.00000000e-03
2.00000000e-03
2.00000000e-03
2.00000000e-03
2.00000000e-03
2.00000000e-03
2.00000000e-03
2.00000000e-03
2.00000000e-03
2.00000000e-03
2.00000000e-03
2.00000000e-03
