# vtk DataFile Version 2.0
Particle data
ASCII
DATASET POLYDATA
POINTS 469 double
2.52483000e-02	-2.57928000e-02	8.81768000e-03
1.45864000e-02	-2.95361000e-02	1.32164000e-02
5.00718000e-03	-2.64174000e-02	3.83049000e-03
3.69543000e-02	1.34890000e-02	1.80999000e-02
1.09459000e-02	-2.66243000e-02	2.55299000e-03
3.00607000e-02	-2.63537000e-02	2.49954000e-03
2.23065000e-02	-2.51674000e-02	1.14542000e-02
2.63028000e-02	-4.44602000e-03	1.73808000e-02
6.68028000e-03	-3.55225000e-02	1.81002000e-02
1.41850000e-02	4.20948000e-03	1.44630000e-02
3.37507000e-02	-2.14358000e-02	1.79512000e-02
1.68023000e-02	-2.70036000e-02	1.81021000e-02
-6.75168000e-03	-3.93733000e-02	1.18116000e-02
8.75180000e-03	-2.33232000e-02	2.01412000e-03
3.16855000e-02	-2.42955000e-02	1.44645000e-02
2.82441000e-02	9.46739000e-03	1.26588000e-02
3.54740000e-02	7.31193000e-03	1.43214000e-02
1.29495000e-02	-3.40693000e-02	1.99999000e-03
3.09822000e-02	-2.95761000e-03	1.35742000e-02
3.36358000e-02	-1.78670000e-02	1.10988000e-02
3.35876000e-02	-1.36139000e-02	1.99900000e-03
1.13307000e-03	-3.70260000e-02	1.81006000e-02
3.09360000e-02	1.31390000e-02	1.12140000e-02
1.71460000e-02	-1.08008000e-02	1.99985000e-03
7.66040000e-03	-1.73292000e-02	2.00019000e-03
2.78466000e-02	1.44482000e-02	1.48268000e-02
3.93305000e-02	-6.92296000e-03	1.39258000e-02
8.21871000e-03	-3.55807000e-02	1.35930000e-02
3.94023000e-02	6.66111000e-03	1.57937000e-02
1.86141000e-02	-1.62392000e-02	1.41923000e-02
8.07370000e-03	-3.28294000e-02	1.06933000e-02
1.82003000e-02	-3.55990000e-02	2.03555000e-03
1.44612000e-02	-3.31346000e-02	5.58336000e-03
6.56249000e-03	-2.12207000e-02	1.79982000e-02
9.03795000e-03	-1.36111000e-02	9.48091000e-03
3.25589000e-03	-3.23703000e-02	1.20014000e-02
3.05663000e-02	-2.56421000e-02	6.47964000e-03
3.65620000e-02	-1.96699000e-03	9.52204000e-03
1.85077000e-02	-2.62887000e-02	1.09014000e-02
1.42667000e-02	-1.53957000e-02	3.01947000e-03
3.60051000e-02	-5.51981000e-03	7.70082000e-03
1.68414000e-02	-3.54163000e-02	1.52454000e-02
-7.74906000e-03	-2.83633000e-02	2.39078000e-03
2.06831000e-02	-2.01670000e-02	1.41223000e-02
3.05137000e-02	1.15091000e-02	1.53473000e-02
3.41299000e-02	-1.25976000e-02	1.12053000e-02
2.70761000e-02	-1.49081000e-02	1.44345000e-02
2.41807000e-02	-1.53713000e-02	5.92545000e-03
2.20863000e-02	-7.66219000e-03	1.22924000e-02
2.08652000e-02	-2.05503000e-02	1.81002000e-02
1.79608000e-02	-1.65645000e-02	2.00004000e-03
1.76317000e-02	-1.36441000e-02	4.77102000e-03
3.42543000e-02	9.62779000e-03	1.73455000e-02
2.58431000e-02	-3.56758000e-03	7.12074000e-03
2.83794000e-02	1.73743000e-02	5.32258000e-03
3.95200000e-02	2.54213000e-03	1.41933000e-02
1.91391000e-02	5.27948000e-03	9.96789000e-03
3.05719000e-02	-1.31764000e-02	1.53176000e-02
2.16920000e-02	7.94395000e-03	1.33231000e-02
1.24678000e-02	-1.41129000e-03	1.68570000e-02
-4.51421000e-03	-2.27575000e-02	1.80057000e-02
1.63712000e-02	-1.01829000e-02	1.10549000e-02
1.88457000e-02	-1.70978000e-02	1.80959000e-02
3.59253000e-02	5.57560000e-03	1.07470000e-02
1.94119000e-03	-3.31296000e-02	5.10829000e-03
3.67439000e-02	-1.56516000e-02	6.50862000e-03
-3.94414000e-03	-2.03941000e-02	8.92373000e-03
1.35799000e-02	-2.95489000e-02	1.80031000e-02
2.53148000e-02	1.44576000e-02	1.08656000e-02
-7.39068000e-03	-3.35165000e-02	9.63498000e-03
3.97502000e-02	-4.00412000e-03	6.26872000e-03
2.04571000e-03	-3.78765000e-02	1.99910000e-03
2.75748000e-02	-2.05835000e-02	1.81001000e-02
3.56802000e-02	-9.42898000e-03	8.48195000e-03
2.15567000e-02	-3.31832000e-02	5.81447000e-03
3.90620000e-02	-8.37529000e-03	1.80997000e-02
3.23910000e-02	-2.71499000e-03	6.42036000e-03
1.95314000e-02	-2.26419000e-02	9.61750000e-03
-1.03938000e-02	-3.86102000e-02	1.80683000e-02
2.19549000e-02	-2.50135000e-03	1.80731000e-02
3.06035000e-02	-1.17034000e-02	5.45942000e-03
1.16077000e-02	-1.65128000e-02	8.46150000e-03
1.09975000e-02	-3.31932000e-03	2.00095000e-03
7.31039000e-03	-1.58289000e-02	1.80984000e-02
9.76114000e-03	-7.62703000e-03	3.71527000e-03
3.64704000e-02	-1.63865000e-02	1.99999000e-03
1.97640000e-02	-3.16648000e-02	1.48276000e-02
3.36604000e-02	1.06377000e-02	1.30370000e-02
9.07279000e-04	-1.98922000e-02	6.43953000e-03
2.65223000e-02	1.62953000e-03	6.16162000e-03
3.45839000e-02	-1.14192000e-02	5.19038000e-03
2.23591000e-02	-2.16936000e-02	1.99887000e-03
2.07007000e-03	-3.70070000e-02	6.08059000e-03
3.94906000e-02	-5.94640000e-03	9.75505000e-03
7.19427000e-03	-3.04050000e-02	7.60964000e-03
6.12162000e-03	-3.95119000e-02	8.31638000e-03
3.44272000e-02	8.54971000e-03	8.53215000e-03
1.96788000e-02	5.38908000e-03	1.80086000e-02
1.15009000e-02	-1.57723000e-02	1.80108000e-02
1.15783000e-02	-2.05730000e-02	8.74327000e-03
2.34686000e-02	2.09484000e-03	2.62977000e-03
2.53825000e-02	2.44294000e-04	9.74037000e-03
3.41381000e-02	3.24709000e-03	1.41566000e-02
-6.62049000e-03	-3.94454000e-02	1.69482000e-02
2.53172000e-02	1.05236000e-02	1.00550000e-02
2.10993000e-02	-1.40849000e-02	2.02713000e-03
2.74189000e-02	8.01762000e-03	2.00034000e-03
1.94758000e-02	-8.07522000e-03	3.77238000e-03
3.32217000e-03	-1.03360000e-02	2.07523000e-03
1.39101000e-02	-2.53804000e-02	4.94859000e-03
2.76435000e-02	5.43865000e-03	5.05181000e-03
3.53504000e-02	-9.86587000e-03	1.81003000e-02
3.04320000e-02	-1.46285000e-02	1.14172000e-02
3.33827000e-02	8.25688000e-03	1.99914000e-03
3.03123000e-03	-1.82814000e-02	1.37849000e-02
2.24482000e-02	5.92260000e-03	2.02314000e-03
3.99512000e-02	7.90805000e-05	1.00857000e-02
1.84852000e-02	-1.25670000e-03	1.08248000e-02
9.69411000e-03	-2.91767000e-02	1.09040000e-02
1.83259000e-02	-3.55068000e-02	6.21557000e-03
2.65491000e-02	-1.89771000e-02	1.99918000e-03
1.30121000e-02	-1.91354000e-02	1.64606000e-02
3.57217000e-02	-1.79861000e-02	1.74907000e-02
-1.00285000e-02	-3.38034000e-02	6.53039000e-03
-2.76495000e-03	-3.98942000e-02	1.80658000e-02
3.32856000e-02	-1.67088000e-02	4.51237000e-03
2.80023000e-02	-2.84879000e-02	5.32876000e-03
1.70654000e-02	-2.70862000e-02	7.25868000e-03
3.63075000e-02	1.99159000e-03	9.01440000e-03
3.15638000e-02	-1.08032000e-03	2.19576000e-03
3.62552000e-02	-2.16400000e-03	5.53908000e-03
-1.37679000e-04	-3.99930000e-02	4.59642000e-03
3.13853000e-02	-1.04208000e-02	1.81002000e-02
1.39708000e-02	-3.34478000e-02	1.26554000e-02
1.49308000e-02	-1.85549000e-02	9.57140000e-03
5.29236000e-03	-1.37481000e-02	7.49450000e-03
8.10038000e-03	-3.32219000e-02	3.97854000e-03
2.60980000e-02	-2.60444000e-02	2.05188000e-03
2.16191000e-02	2.19261000e-03	1.34911000e-02
3.63887000e-02	-2.29786000e-03	1.75612000e-02
1.67478000e-03	-1.45594000e-02	1.54380000e-02
3.02462000e-02	-1.73761000e-02	1.99972000e-03
3.16630000e-02	-1.69248000e-02	1.44495000e-02
3.98888000e-02	-1.64032000e-05	5.99471000e-03
2.57770000e-02	-2.18621000e-02	8.30278000e-03
3.46743000e-02	-1.99161000e-02	2.56935000e-03
3.33951000e-02	1.73910000e-02	1.02537000e-02
3.25361000e-02	-2.32519000e-02	1.99998000e-03
2.21445000e-02	-8.39404000e-03	6.87111000e-03
1.18314000e-02	-9.84673000e-03	1.80805000e-02
2.80043000e-02	-1.86804000e-02	1.09878000e-02
2.51300000e-02	8.12626000e-03	1.81000000e-02
2.60764000e-02	-3.02721000e-02	1.15159000e-02
3.83910000e-02	-1.06858000e-02	1.49042000e-02
2.16492000e-02	-1.53923000e-02	1.16278000e-02
2.57591000e-02	-1.03256000e-02	1.02565000e-02
2.49772000e-02	-3.11242000e-02	5.56903000e-03
1.04192000e-02	-2.36008000e-02	5.75242000e-03
-9.99458000e-03	-3.86965000e-02	1.40604000e-02
2.55672000e-02	-1.51003000e-02	2.02163000e-03
7.27995000e-03	-3.60544000e-02	6.67780000e-03
2.64122000e-02	-3.00307000e-02	1.99923000e-03
6.59012000e-03	-2.72807000e-03	1.00439000e-02
3.42165000e-02	2.58435000e-03	1.81002000e-02
1.53922000e-02	-5.28288000e-03	2.03683000e-03
1.50191000e-02	-2.55846000e-02	1.27755000e-02
1.96937000e-02	-1.58472000e-02	7.39675000e-03
2.99865000e-02	-2.03079000e-02	4.70783000e-03
3.85105000e-02	9.80433000e-03	1.81005000e-02
2.77798000e-02	4.49551000e-03	9.12149000e-03
2.86582000e-02	-2.78439000e-02	9.22105000e-03
2.14258000e-02	7.80378000e-03	7.36355000e-03
2.54092000e-02	-1.42646000e-02	1.08562000e-02
1.80935000e-02	-2.80501000e-02	1.44665000e-02
2.12357000e-02	-2.15186000e-02	5.83292000e-03
2.17050000e-02	-2.90142000e-02	1.25469000e-02
1.23633000e-02	-3.80247000e-02	2.00573000e-03
-4.38464000e-03	-3.61722000e-02	1.74800000e-02
2.32020000e-02	-3.25549000e-02	1.81001000e-02
2.26764000e-02	-4.89434000e-03	5.00789000e-03
3.77147000e-02	1.14535000e-02	1.45445000e-02
8.19494000e-03	-1.59163000e-02	5.71771000e-03
1.65521000e-02	-2.30115000e-02	1.80869000e-02
3.54200000e-02	1.45827000e-02	7.60587000e-03
8.30299000e-03	-2.16688000e-02	1.32270000e-02
2.35306000e-02	-3.22804000e-02	9.17409000e-03
3.05265000e-02	-2.06159000e-02	1.34149000e-02
1.40238000e-02	-3.74111000e-02	1.31866000e-02
2.49458000e-02	-1.37517000e-02	1.78685000e-02
2.27461000e-02	-3.28888000e-02	1.99957000e-03
3.09575000e-02	1.43785000e-02	1.80994000e-02
1.45039000e-02	3.84891000e-04	1.30223000e-02
3.09459000e-02	1.65533000e-02	1.33087000e-02
3.91792000e-02	7.19858000e-03	7.82246000e-03
1.38066000e-02	-1.35764000e-02	6.56649000e-03
2.86130000e-02	-1.26059000e-03	1.80988000e-02
1.50524000e-02	-3.47797000e-03	1.18666000e-02
2.18602000e-02	-1.14454000e-02	1.10137000e-02
2.07798000e-02	-1.88471000e-02	9.80923000e-03
2.56981000e-02	1.97014000e-02	1.80999000e-02
3.87332000e-02	-9.65143000e-03	1.10563000e-02
3.30946000e-02	-1.41744000e-02	7.67843000e-03
3.23533000e-02	3.82917000e-03	1.03120000e-02
-2.23527000e-03	-3.99139000e-02	1.17492000e-02
3.51389000e-02	1.67817000e-02	1.48505000e-02
2.85165000e-02	-1.40408000e-02	7.94523000e-03
2.68461000e-02	-1.09152000e-02	1.44377000e-02
3.97297000e-02	-4.49198000e-03	1.74129000e-02
5.72271000e-03	-3.28891000e-02	1.51809000e-02
3.29853000e-02	-6.28630000e-03	1.45250000e-02
-2.01015000e-03	-1.88572000e-02	1.47534000e-02
2.76424000e-02	1.20117000e-02	2.01482000e-03
1.62952000e-02	1.88303000e-03	9.66453000e-03
2.57459000e-02	2.03616000e-03	1.36203000e-02
1.11543000e-02	-3.20815000e-02	1.51445000e-02
1.05428000e-03	-2.91555000e-02	4.44663000e-03
[...]
POINT_DATA 469
SCALARS Radius double 1
LOOKUP_TABLE default
2.00000000e-03
2.00000000e-03
2.00000000e-03
2.00000000e-03
2.00000000e-03
2.00000000e-03
2.00000000e-03
2.00000000e-03
2.00000000e-03
2.00000000e-03
2.00000000e-03
2.00000000e-03
2.00000000e-03
2.00000000e-03
2.00000000e-03
2.00000000e-03
2.00000000e-03
2.00000000e-03
2.00000000e-03
2.00000000e-03
2.00000000e-03
2.00000000e-03
2.00000000e-03
2.00000000e-03
2.00000000e-03
2.00000000e-03
2.00000000e-03
2.00000000e-03
2.00000000e-03
2.00000000e-03
2.00000000e-03
2.00000000e-03
2.00000000e-03
2.00000000e-03
2.00000000e-03
2.00000000e-03
2.00000000e-03
2.00000000e-03
2.00000000e-03
2.00000000e-03
2.00000000e-03
2.00000000e-03
2.00000000e-03
2.00000000e-03
2.00000000e-03
2.00000000e-03
2.00000000e-03
2.00000000e-03
2.00000000e-03
2.00000000e-03
2.00000000e-03
2.00000000e-03
2.00000000e-03
2.00000000e-03
2.00000000e-03
2.00000000e-03
2.00000000e-03
2.00000000e-03
2.00000000e-03
2.00000000e-03
2.00000000e-03
2.00000000e-03
2.00000000e-03
2.00000000e-03
2.00000000e-03
2.00000000e-03
2.00000000e-03
2.00000000e-03
2.00000000e-03
2.00000000e-03
2.00000000e-03
2.00000000e-03
2.00000000e-03
2.00000000e-03
2.00000000e-03
2.00000000e-03
2.00000000e-03
2.00000000e-03
2.00000000e-03
2.00000000e-03
2.00000000e-03
2.00000000e-03
2.00000000e-03
2.00000000e-03
2.00000000e-03
2.00000000e-03
2.00000000e-03
2.00000000e-03
2.00000000e-03
2.00000000e-03
2.00000000e-03
2.00000000e-03
2.00000000e-03
2.00000000e-03
2.00000000e-03
2.00000000e-03
2.00000000e-03
2.00000000e-03
2.00000000e-03
2.00000000e-03
2.00000000e-03
2.00000000e-03
2.00000000e-03
2.00000000e-03
2.00000000e-03
2.00000000e-03
2.00000000e-03
2.00000000e-03
2.00000000e-03
2.00000000e-03
2.00000000e-03
2.00000000e-03
2.00000000e-03
2.00000000e-03
2.00000000e-03
2.00000000e-03
2.00000000e-03
2.00000000e-03
2.00000000e-03
2.00000000e-03
2.00000000e-03
2.00000000e-03
2.00000000e-03
2.00000000e-03
2.00000000e-03
2.00000000e-03
2.00000000e-03
2.00000000e-03
2.00000000e-03
2.00000000e-03
2.00000000e-03
2.00000000e-03
2.00000000e-03
2.00000000e-03
2.00000000e-03
2.00000000e-03
2.00000000e-03
2.00000000e-03
2.00000000e-03
2.00000000e-03
2.00000000e-03
2.00000000e-03
2.00000000e-03
2.00000000e-03
2.00000000e-03
2.00000000e-03
2.00000000e-03
2.00000000e-03
2.00000000e-03
2.00000000e-03
2.00000000e-03
2.00000000e-03
2.00000000e-03
2.00000000e-03
2.00000000e-03
2.00000000e-03
2.00000000e-03
2.00000000e-03
2.00000000e-03
2.00000000e-03
2.00000000e-03
2.00000000e-03
2.00000000e-03
2.00000000e-03
2.00000000e-03
2.00000000e-03
2.00000000e-03
2.00000000e-03
2.00000000e-03
2.00000000e-03
2.00000000e-03
2.00000000e-03
2.00000000e-03
2.00000000e-03
2.00000000e-03
2.00000000e-03
2.00000000e-03
2.00000000e-03
2.00000000e-03
2.00000000e-03
2.00000000e-03
2.00000000e-03
2.00000000e-03
2.00000000e-03
2.00000000e-03
2.00000000e-03
2.00000000e-03
2.00000000e-03
2.00000000e-03
2.00000000e-03
2.00000000e-03
2.00000000e-03
2.00000000e-03
2.00000000e-03
2.00000000e-03
2.00000000e-03
2.00000000e-03
2.00000000e-03
2.00000000e-03
2.00000000e-03
2.00000000e-03
2.00000000e-03
2.00000000e-03
2.00000000e-03
2.00000000e-03
2.00000000e-03
2.00000000e-03
2.00000000e-03
2.00000000e-03
2.00000000e-03
2.00000000e-03
2.00000000e-03
2.00000000e-03
2.00000000e-03
2.00000000e-03
2.00000000e-03
2.00000000e-03
2.00000000e-03
2.00000000e-03
2.00000000e-03
2.00000000e-03
2.00000000e-03
2.00000000e-03
2.00000000e-03
2.00000000e-03
2.00000000e-03
2.00000000e-03
2.00000000e-03
2.00000000e-03
2.00000000e-03
2.00000000e-03
2.00000000e-03
2.00000000e-03
2.00000000e-03
2.00000000e-03
2.00000000e-03
2.00000000e-03
2.00000000e-03
2.00000000e-03
2.00000000e-03
2.00000000e-03
2.00000000e-03
2.00000000e-03
2.00000000e-03
2.00000000e-03
2.00000000e-03
2.00000000e-03
2.00000000e-03
2.00000000e-03
2.00000000e-03
2.00000000e-03
2.00000000e-03
2.00000000e-03
2.00000000e-03
2.00000000e-03
2.00000000e-03
2.00000000e-03
2.00000000e-03
2.00000000e-03
2.00000000e-03
2.00000000e-03
2.00000000e-03
2.00000000e-03
2.00000000e-03
2.00000000e-03
2.00000000e-03
2.00000000e-03
2.00000000e-03
2.00000000e-03
2.00000000e-03
2.00000000e-03
2.00000000e-03
2.00000000e-03
2.00000000e-03
2.00000000e-03
2.00000000e-03
2.00000000e-03
2.00000000e-03
2.00000000e-03
2.00000000e-03
2.00000000e-03
2.00000000e-03
2.00000000e-03
2.00000000e-03
2.00000000e-03
2.00000000e-03
2.00000000e-03
2.00000000e-03
2.00000000e-03
2.00000000e-03
2.00000000e-03
2.00000000e-03
2.00000000e-03
2.00000000e-03
2.00000000e-03
2.00000000e-03
2.00000000e-03
2.00000000e-03
2.00000000e-03
2.00000000e-03
2.00000000e-03
2.00000000e-03
2.00000000e-03
2.00000000e-03
2.00000000e-03
2.00000000e-03
2.00000000e-03
2.00000000e-03
2.00000000e-03
2.00000000e-03
2.00000000e-03
2.00000000e-03
2.00000000e-03
2.00000000e-03
2.00000000e-03
2.00000000e-03
2.00000000e-03
2.00000000e-03
2.00000000e-03
2.00000000e-03
2.00000000e-03
2.00000000e-03
2.00000000e-03
2.00000000e-03
2.00000000e-03
2.00000000e-03
2.00000000e-03
2.00000000e-03
2.00000000e-03
2.00000000e-03
2.00000000e-03
2.00000000e-03
2.00000000e-03
2.00000000e-03
2.00000000e-03
2.00000000e-03
2.00000000e-03
2.00000000e-03
2.00000000e-03
2.00000000e-03
2.00000000e-03
2.00000000e-03
2.00000000e-03
2.00000000e-03
2.00000000e-03
2.00000000e-03
2.00000000e-03
2.00000000e-03
2.00000000e-03
2.00000000e-03
2.00000000e-03
2.00000000e-03
2.00000000e-03
2.00000000e-03
2.00000000e-03
2.00000000e-03
2.00000000e-03
2.00000000e-03
2.00000000e-03
2.00000000e-03
2.00000000e-03
2.00000000e-03
2.00000000e-03
2.00000000e-03
2.00000000e-03
2.00000000e-03
2.00000000e-03
2.00000000e-03
2.00000000e-03
2.00000000e-03
2.00000000e-03
2.00000000e-03
2.00000000e-03
2.00000000e-03
2.00000000e-03
2.00000000e-03
2.00000000e-03
2.00000000e-03
2.00000000e-03
2.00000000e-03
2.00000000e-03
2.00000000e-03
2.00000000e-03
2.00000000e-03
2.00000000e-03
2.00000000e-03
2.00000000e-03
2.00000000e-03
2.00000000e-03
2.00000000e-03
2.00000000e-03
2.00000000e-03
2.00000000e-03
2.00000000e-03
2.00000000e-03
2.00000000e-03
2.00000000e-03
2.00000000e-03
2.00000000e-03
2.00000000e-03
2.00000000e-03
2.00000000e-03
2.00000000e-03
2.00000000e-03
2.00000000e-03
2.00000000e-03
2.00000000e-03
2.00000000e-03
2.00000000e-03
2.00000000e-03
2.00000000e-03
2.00000000e-03
2.00000000e-03
2.00000000e-03
2.00000000e-03
2.00000000e-03
2.00000000e-03
2.00000000e-03
2.00000000e-03
2.00000000e-03
2.00000000e-03
2.00000000e-03
2.00000000e-03
2.00000000e-03
2.00000000e-03
2.00000000e-03
2.00000000e-03
2.00000000e-03
2.00000000e-03
2.00000000e-03
2.00000000e-03
2.00000000e-03
2.00000000e-03
2.00000000e-03
2.00000000e-03
2.00000000e-03
2.00000000e-03
2.00000000e-03
2.00000000e-03
2.00000000e-03
2.00000000e-03
2.00000000e-03
2.00000000e-03
2.00000000e-03
2.00000000e-03
2.00000000e-03
2.00000000e-03
2.00000000e-03
2.00000000e-03
2.00000000e-03
2.00000000e-03
2.00000000e-03
2.00000000e-03
2.00000000e-03
2.00000000e-03
2.00000000e-03
2.00000000e-03
2.00000000e-03
2.00000000e-03
2.00000000e-03
2.00000000e-03
2.00000000e-03
2.00000000e-03
2.00000000e-03
2.00000000e-03
2.00000000e-03
2.00000000e-03
2.00000000e-03
2.00000000e-03
