# vtk DataFile Version 2.0
Particle data
ASCII
DATASET POLYDATA
POINTS 469 double
4.43963000e-03	-3.56814000e-02	8.50193000e-03
1.56342000e-02	-7.22935000e-03	7.73892000e-03
2.49324000e-02	1.19029000e-02	2.00186000e-03
3.84738000e-02	-1.09190000e-02	1.79786000e-02
2.36453000e-02	8.68715000e-03	5.13897000e-03
7.13079000e-03	-3.93448000e-02	2.43468000e-03
3.58744000e-03	-3.31376000e-02	1.14683000e-02
2.23427000e-02	-1.92020000e-02	1.76258000e-02
5.48638000e-03	-1.51899000e-02	1.66145000e-02
3.64600000e-02	4.06160000e-03	1.09264000e-02
1.15856000e-02	-3.82738000e-02	1.78394000e-02
5.45367000e-03	-2.47549000e-02	1.80988000e-02
2.30026000e-03	-1.82024000e-02	1.51006000e-02
3.17831000e-02	2.08739000e-02	2.06991000e-03
9.75786000e-03	-3.87177000e-02	1.42978000e-02
3.27144000e-02	-7.32689000e-03	1.21854000e-02
3.38310000e-02	-1.41054000e-02	1.42949000e-02
9.93994000e-03	-1.31793000e-02	4.11947000e-03
2.42655000e-02	-2.07915000e-02	1.40879000e-02
1.48215000e-02	-3.50021000e-02	1.10986000e-02
1.82859000e-02	-3.15567000e-02	2.00892000e-03
8.85432000e-03	-1.27208000e-03	1.80968000e-02
3.65352000e-02	-6.60339000e-03	1.12541000e-02
1.69273000e-02	-1.77103000e-02	2.16849000e-03
2.82845000e-02	5.65141000e-03	1.99988000e-03
3.77359000e-02	1.20095000e-04	1.47773000e-02
2.67689000e-02	-2.96881000e-02	1.44247000e-02
-1.96060000e-03	-2.99281000e-02	1.45395000e-02
3.55258000e-02	-1.83217000e-02	1.70189000e-02
1.68463000e-02	-1.31537000e-02	1.45514000e-02
9.36710000e-03	-1.53387000e-02	1.51582000e-02
-7.43167000e-03	-3.92797000e-02	2.10963000e-03
5.54841000e-03	-2.21113000e-02	6.19763000e-03
2.19153000e-02	-2.85233000e-03	1.81004000e-02
2.82482000e-02	-2.19286000e-03	9.12672000e-03
3.01526000e-02	1.75016000e-02	1.05409000e-02
6.99302000e-03	-3.71593000e-02	5.80050000e-03
2.79930000e-02	-2.32533000e-02	9.40929000e-03
8.33513000e-03	-2.20887000e-02	1.24151000e-02
2.61093000e-02	-1.96383000e-03	2.44276000e-03
2.54200000e-02	-2.59878000e-02	8.03037000e-03
-5.04395000e-03	-3.32686000e-02	1.60286000e-02
3.14147000e-02	8.14186000e-03	1.99958000e-03
8.10496000e-03	-2.52311000e-02	1.51161000e-02
3.60817000e-02	-3.23476000e-03	1.33607000e-02
1.90026000e-02	-3.10520000e-02	1.08937000e-02
1.49185000e-02	-2.55025000e-02	1.36284000e-02
1.35241000e-02	-2.65128000e-02	5.42892000e-03
1.79462000e-02	-1.56317000e-02	1.15071000e-02
5.28611000e-03	-2.93615000e-02	1.81000000e-02
1.21142000e-02	-1.64653000e-02	2.00010000e-03
1.51651000e-02	-1.39365000e-02	2.66640000e-03
3.55009000e-02	-8.72837000e-03	1.64430000e-02
2.30957000e-02	-1.78333000e-02	8.10810000e-03
3.98574000e-02	-2.90775000e-03	4.82542000e-03
3.40396000e-02	-2.09008000e-02	1.42017000e-02
3.60467000e-02	4.98204000e-04	9.15987000e-03
1.70083000e-02	-2.86566000e-02	1.49247000e-02
3.96845000e-02	4.66349000e-03	1.41405000e-02
3.62129000e-02	5.50417000e-03	1.68323000e-02
3.32667000e-02	1.88373000e-02	1.65173000e-02
2.43129000e-02	-9.62177000e-03	1.15352000e-02
1.07545000e-02	-2.55083000e-02	1.81005000e-02
3.30503000e-02	-1.57817000e-02	1.00877000e-02
2.54372000e-02	1.71452000e-02	3.17254000e-03
1.81613000e-02	-3.55987000e-02	6.87193000e-03
3.34215000e-02	7.85883000e-03	5.44751000e-03
1.61455000e-02	-3.67710000e-04	1.76258000e-02
3.98651000e-02	1.68106000e-03	1.14814000e-02
3.17268000e-02	1.29630000e-02	1.05506000e-02
2.83686000e-02	-2.80996000e-02	6.34359000e-03
1.05011000e-02	4.02973000e-04	2.02355000e-03
8.42581000e-03	-3.30858000e-02	1.81004000e-02
2.29410000e-02	-2.90801000e-02	8.56810000e-03
-6.39725000e-04	-3.34133000e-02	6.89874000e-03
2.53446000e-02	-3.03673000e-02	1.81001000e-02
2.58195000e-02	-2.10767000e-02	5.76226000e-03
1.07700000e-02	-1.92265000e-02	5.53326000e-03
1.85800000e-02	4.14644000e-03	3.63903000e-03
1.96757000e-02	-1.59963000e-02	1.81016000e-02
1.71931000e-02	-2.81436000e-02	5.49963000e-03
2.50746000e-02	-2.33931000e-03	6.69380000e-03
3.52467000e-02	6.97586000e-03	1.99984000e-03
3.33110000e-02	1.49262000e-02	1.73532000e-02
2.76432000e-02	1.70338000e-03	2.00029000e-03
1.83097000e-02	-3.55556000e-02	1.99963000e-03
-3.92847000e-03	-3.63210000e-02	1.16328000e-02
3.50224000e-02	-1.05354000e-02	1.29072000e-02
2.90125000e-02	7.43855000e-03	5.50341000e-03
2.85814000e-02	-1.32611000e-02	6.74283000e-03
2.07011000e-02	-3.02910000e-02	5.48397000e-03
7.86461000e-03	-1.73489000e-02	3.38878000e-03
1.69200000e-02	-6.68845000e-04	5.92101000e-03
2.76219000e-02	-2.88122000e-02	1.02081000e-02
2.76721000e-02	1.10401000e-02	1.70364000e-02
-4.41504000e-03	-2.71201000e-02	5.29593000e-03
3.44447000e-02	-1.11713000e-02	9.00117000e-03
3.25550000e-02	-1.03994000e-04	1.81002000e-02
1.45262000e-02	-1.84659000e-02	1.81008000e-02
1.91265000e-02	-8.09879000e-03	1.27418000e-02
2.89093000e-02	-9.43801000e-03	1.99942000e-03
2.91052000e-02	-8.75665000e-03	1.12279000e-02
3.08775000e-02	-1.66267000e-02	1.33381000e-02
7.56558000e-03	2.60356000e-03	1.79430000e-02
3.54549000e-02	-3.45431000e-03	9.03974000e-03
1.61773000e-02	-2.16374000e-02	2.05447000e-03
3.26267000e-02	-7.97526000e-03	2.19474000e-03
2.11220000e-02	-1.60872000e-02	1.99873000e-03
3.43384000e-02	1.08710000e-02	2.00020000e-03
2.54851000e-02	7.01716000e-03	8.27291000e-03
3.13116000e-02	-1.16615000e-02	4.29707000e-03
2.12790000e-02	-3.04462000e-02	1.80968000e-02
1.51522000e-02	-3.07405000e-02	1.19311000e-02
3.48305000e-02	-1.14870000e-02	2.25937000e-03
3.15880000e-02	1.04602000e-02	1.80994000e-02
3.59042000e-02	2.88503000e-03	2.04296000e-03
3.18314000e-02	-2.41629000e-02	1.00710000e-02
3.10857000e-02	-5.18585000e-03	9.21669000e-03
1.70507000e-02	1.12122000e-03	1.37580000e-02
-7.96057000e-03	-3.64540000e-02	6.08585000e-03
8.50977000e-03	-3.15497000e-02	1.99989000e-03
1.25031000e-02	-2.19161000e-02	1.79455000e-02
1.71422000e-02	-3.61182000e-02	1.67126000e-02
3.08995000e-02	1.35210000e-02	1.44884000e-02
-2.66580000e-03	-2.04191000e-02	1.79857000e-02
1.52716000e-02	-3.36908000e-02	4.53233000e-03
4.06044000e-03	-3.97570000e-02	4.99375000e-03
1.49008000e-02	-1.54232000e-03	1.03317000e-02
3.12680000e-02	-1.90260000e-02	8.57334000e-03
2.86076000e-02	-1.82592000e-02	1.99971000e-03
2.83259000e-02	-2.41842000e-02	5.53294000e-03
-2.34241000e-03	-2.10188000e-02	1.03566000e-02
1.89516000e-02	-2.71934000e-02	1.81001000e-02
1.68839000e-02	8.06101000e-03	1.50864000e-02
1.96835000e-02	-1.19864000e-02	1.19871000e-02
3.71255000e-02	1.27179000e-02	5.91651000e-03
1.46153000e-02	5.13044000e-03	6.00323000e-03
3.74670000e-03	-3.71237000e-02	1.99975000e-03
3.16667000e-02	-4.07290000e-03	1.42609000e-02
2.80897000e-02	-2.26296000e-02	1.73315000e-02
3.49154000e-02	9.58714000e-03	1.60586000e-02
1.24058000e-02	-3.25247000e-02	1.99876000e-03
1.41481000e-02	-3.34315000e-02	1.47141000e-02
3.23875000e-02	-2.33758000e-02	6.18994000e-03
7.02810000e-03	-3.23637000e-02	7.38326000e-03
1.47196000e-02	-3.71856000e-02	2.66934000e-03
3.96840000e-02	-4.18083000e-03	1.07931000e-02
1.08408000e-02	-3.79117000e-02	2.01261000e-03
2.38795000e-02	-1.25789000e-02	8.87793000e-03
2.61361000e-02	-3.69070000e-04	1.81005000e-02
1.07053000e-02	-3.17075000e-02	1.07380000e-02
2.89715000e-02	-4.97451000e-03	1.81006000e-02
9.20978000e-04	-3.99178000e-02	1.12900000e-02
2.33533000e-02	-3.24302000e-02	1.53111000e-02
1.14678000e-02	-1.92649000e-02	1.33864000e-02
1.84204000e-02	-1.97578000e-02	1.04140000e-02
9.93264000e-05	-3.98877000e-02	5.99738000e-03
2.43142000e-02	6.24677000e-03	2.04294000e-03
1.69595000e-02	1.12778000e-02	3.36316000e-03
1.09294000e-02	-2.83597000e-02	1.99980000e-03
5.44435000e-03	-1.43550000e-02	8.69184000e-03
7.20464000e-04	-3.99840000e-02	2.00479000e-03
3.88717000e-02	9.03505000e-03	1.41182000e-02
2.94886000e-02	-1.66207000e-02	1.81003000e-02
3.25782000e-02	6.56725000e-04	1.99948000e-03
1.76049000e-02	-4.49728000e-03	1.18971000e-02
1.30560000e-02	-2.25780000e-02	5.97017000e-03
1.03114000e-02	-3.47250000e-02	4.60107000e-03
3.71903000e-02	-1.47055000e-02	1.80990000e-02
3.08949000e-02	-9.77497000e-03	7.79913000e-03
4.73895000e-03	-3.96453000e-02	8.93825000e-03
3.91834000e-02	6.55225000e-03	2.56484000e-03
1.36330000e-02	-2.54932000e-02	9.84072000e-03
8.30099000e-04	-3.29607000e-02	1.43602000e-02
5.98352000e-03	-2.60793000e-02	6.82680000e-03
-2.70404000e-04	-3.66430000e-02	1.32531000e-02
-7.64783000e-03	-3.49338000e-02	2.07271000e-03
1.19484000e-02	5.38332000e-03	1.79217000e-02
-2.59062000e-03	-3.79438000e-02	1.81000000e-02
2.49373000e-02	-1.41580000e-02	5.36179000e-03
3.77339000e-02	-1.32328000e-02	1.43616000e-02
2.11300000e-02	-1.30929000e-02	4.74752000e-03
8.26898000e-03	-2.18305000e-02	1.80998000e-02
3.86787000e-02	-9.97629000e-03	7.30369000e-03
2.05692000e-02	-5.42538000e-03	1.53430000e-02
-2.44846000e-03	-3.98682000e-02	9.08210000e-03
1.09564000e-02	-3.51531000e-02	1.28271000e-02
-2.67526000e-03	-2.90592000e-02	1.05777000e-02
1.45391000e-02	-2.67446000e-02	1.76325000e-02
-3.32764000e-03	-3.86637000e-02	2.01731000e-03
3.67496000e-02	-2.27486000e-03	1.80169000e-02
3.46564000e-02	2.65935000e-03	1.44908000e-02
3.97531000e-02	-3.57801000e-03	1.49093000e-02
3.62678000e-02	-1.68114000e-02	7.86461000e-03
1.95689000e-02	-1.66663000e-02	5.63737000e-03
2.66108000e-02	-1.38480000e-02	1.79347000e-02
3.23536000e-02	2.62901000e-03	1.06251000e-02
1.50331000e-02	-1.95637000e-02	7.70266000e-03
9.79687000e-03	-2.44117000e-02	9.49906000e-03
3.97376000e-02	4.10099000e-03	1.81002000e-02
2.47350000e-02	-3.13160000e-02	1.13896000e-02
1.73584000e-02	-3.17061000e-02	7.30683000e-03
2.88028000e-02	-1.59256000e-02	9.99173000e-03
3.21287000e-03	-1.06316000e-02	1.70881000e-02
3.92169000e-02	-7.61024000e-03	1.44605000e-02
1.45100000e-02	-2.90964000e-02	8.34201000e-03
1.66258000e-02	-1.71792000e-02	1.49500000e-02
2.85365000e-02	-2.79767000e-02	1.77895000e-02
1.81674000e-02	8.55316000e-03	7.39216000e-03
2.32326000e-02	-2.46074000e-02	1.46958000e-02
3.48256000e-02	1.20550000e-02	1.29123000e-02
3.58317000e-02	-4.30218000e-03	2.00000000e-03
3.92280000e-02	7.45564000e-03	6.46113000e-03
2.95372000e-02	-7.38540000e-03	1.49597000e-02
1.59467000e-02	1.05471000e-02	1.15273000e-02
3.28236000e-02	1.18032000e-02	5.73176000e-03
[...]
POINT_DATA 469
SCALARS Radius double 1
LOOKUP_TABLE default
2.00000000e-03
2.00000000e-03
2.00000000e-03
2.00000000e-03
2.00000000e-03
2.00000000e-03
2.00000000e-03
2.00000000e-03
2.00000000e-03
2.00000000e-03
2.00000000e-03
2.00000000e-03
2.00000000e-03
2.00000000e-03
2.00000000e-03
2.00000000e-03
2.00000000e-03
2.00000000e-03
2.00000000e-03
2.00000000e-03
2.00000000e-03
2.00000000e-03
2.00000000e-03
2.00000000e-03
2.00000000e-03
2.00000000e-03
2.00000000e-03
2.00000000e-03
2.00000000e-03
2.00000000e-03
2.00000000e-03
2.00000000e-03
2.00000000e-03
2.00000000e-03
2.00000000e-03
2.00000000e-03
2.00000000e-03
2.00000000e-03
2.00000000e-03
2.00000000e-03
2.00000000e-03
2.00000000e-03
2.00000000e-03
2.00000000e-03
2.00000000e-03
2.00000000e-03
2.00000000e-03
2.00000000e-03
2.00000000e-03
2.00000000e-03
2.00000000e-03
2.00000000e-03
2.00000000e-03
2.00000000e-03
2.00000000e-03
2.00000000e-03
2.00000000e-03
2.00000000e-03
2.00000000e-03
2.00000000e-03
2.00000000e-03
2.00000000e-03
2.00000000e-03
2.00000000e-03
2.00000000e-03
2.00000000e-03
2.00000000e-03
2.00000000e-03
2.00000000e-03
2.00000000e-03
2.00000000e-03
2.00000000e-03
2.00000000e-03
2.00000000e-03
2.00000000e-03
2.00000000e-03
2.00000000e-03
2.00000000e-03
2.00000000e-03
2.00000000e-03
2.00000000e-03
2.00000000e-03
2.00000000e-03
2.00000000e-03
2.00000000e-03
2.00000000e-03
2.00000000e-03
2.00000000e-03
2.00000000e-03
2.00000000e-03
2.00000000e-03
2.00000000e-03
2.00000000e-03
2.00000000e-03
2.00000000e-03
2.00000000e-03
2.00000000e-03
2.00000000e-03
2.00000000e-03
2.00000000e-03
2.00000000e-03
2.00000000e-03
2.00000000e-03
2.00000000e-03
2.00000000e-03
2.00000000e-03
2.00000000e-03
2.00000000e-03
2.00000000e-03
2.00000000e-03
2.00000000e-03
2.00000000e-03
2.00000000e-03
2.00000000e-03
2.00000000e-03
2.00000000e-03
2.00000000e-03
2.00000000e-03
2.00000000e-03
2.00000000e-03
2.00000000e-03
2.00000000e-03
2.00000000e-03
2.00000000e-03
2.00000000e-03
2.00000000e-03
2.00000000e-03
2.00000000e-03
2.00000000e-03
2.00000000e-03
2.00000000e-03
2.00000000e-03
2.00000000e-03
2.00000000e-03
2.00000000e-03
2.00000000e-03
2.00000000e-03
2.00000000e-03
2.00000000e-03
2.00000000e-03
2.00000000e-03
2.00000000e-03
2.00000000e-03
2.00000000e-03
2.00000000e-03
2.00000000e-03
2.00000000e-03
2.00000000e-03
2.00000000e-03
2.00000000e-03
2.00000000e-03
2.00000000e-03
2.00000000e-03
2.00000000e-03
2.00000000e-03
2.00000000e-03
2.00000000e-03
2.00000000e-03
2.00000000e-03
2.00000000e-03
2.00000000e-03
2.00000000e-03
2.00000000e-03
2.00000000e-03
2.00000000e-03
2.00000000e-03
2.00000000e-03
2.00000000e-03
2.00000000e-03
2.00000000e-03
2.00000000e-03
2.00000000e-03
2.00000000e-03
2.00000000e-03
2.00000000e-03
2.00000000e-03
2.00000000e-03
2.00000000e-03
2.00000000e-03
2.00000000e-03
2.00000000e-03
2.00000000e-03
2.00000000e-03
2.00000000e-03
2.00000000e-03
2.00000000e-03
2.00000000e-03
2.00000000e-03
2.00000000e-03
2.00000000e-03
2.00000000e-03
2.00000000e-03
2.00000000e-03
2.00000000e-03
2.00000000e-03
2.00000000e-03
2.00000000e-03
2.00000000e-03
2.00000000e-03
2.00000000e-03
2.00000000e-03
2.00000000e-03
2.00000000e-03
2.00000000e-03
2.00000000e-03
2.00000000e-03
2.00000000e-03
2.00000000e-03
2.00000000e-03
2.00000000e-03
2.00000000e-03
2.00000000e-03
2.00000000e-03
2.00000000e-03
2.00000000e-03
2.00000000e-03
2.00000000e-03
2.00000000e-03
2.00000000e-03
2.00000000e-03
2.00000000e-03
2.00000000e-03
2.00000000e-03
2.00000000e-03
2.00000000e-03
2.00000000e-03
2.00000000e-03
2.00000000e-03
2.00000000e-03
2.00000000e-03
2.00000000e-03
2.00000000e-03
2.00000000e-03
2.00000000e-03
2.00000000e-03
2.00000000e-03
2.00000000e-03
2.00000000e-03
2.00000000e-03
2.00000000e-03
2.00000000e-03
2.00000000e-03
2.00000000e-03
2.00000000e-03
2.00000000e-03
2.00000000e-03
2.00000000e-03
2.00000000e-03
2.00000000e-03
2.00000000e-03
2.00000000e-03
2.00000000e-03
2.00000000e-03
2.00000000e-03
2.00000000e-03
2.00000000e-03
2.00000000e-03
2.00000000e-03
2.00000000e-03
2.00000000e-03
2.00000000e-03
2.00000000e-03
2.00000000e-03
2.00000000e-03
2.00000000e-03
2.00000000e-03
2.00000000e-03
2.00000000e-03
2.00000000e-03
2.00000000e-03
2.00000000e-03
2.00000000e-03
2.00000000e-03
2.00000000e-03
2.00000000e-03
2.00000000e-03
2.00000000e-03
2.00000000e-03
2.00000000e-03
2.00000000e-03
2.00000000e-03
2.00000000e-03
2.00000000e-03
2.00000000e-03
2.00000000e-03
2.00000000e-03
2.00000000e-03
2.00000000e-03
2.00000000e-03
2.00000000e-03
2.00000000e-03
2.00000000e-03
2.00000000e-03
2.00000000e-03
2.00000000e-03
2.00000000e-03
2.00000000e-03
2.00000000e-03
2.00000000e-03
2.00000000e-03
2.00000000e-03
2.00000000e-03
2.00000000e-03
2.00000000e-03
2.00000000e-03
2.00000000e-03
2.00000000e-03
2.00000000e-03
2.00000000e-03
2.00000000e-03
2.00000000e-03
2.00000000e-03
2.00000000e-03
2.00000000e-03
2.00000000e-03
2.00000000e-03
2.00000000e-03
2.00000000e-03
2.00000000e-03
2.00000000e-03
2.00000000e-03
2.00000000e-03
2.00000000e-03
2.00000000e-03
2.00000000e-03
2.00000000e-03
2.00000000e-03
2.00000000e-03
2.00000000e-03
2.00000000e-03
2.00000000e-03
2.00000000e-03
2.00000000e-03
2.00000000e-03
2.00000000e-03
2.00000000e-03
2.00000000e-03
2.00000000e-03
2.00000000e-03
2.00000000e-03
2.00000000e-03
2.00000000e-03
2.00000000e-03
2.00000000e-03
2.00000000e-03
2.00000000e-03
2.00000000e-03
2.00000000e-03
2.00000000e-03
2.00000000e-03
2.00000000e-03
2.00000000e-03
2.00000000e-03
2.00000000e-03
2.00000000e-03
2.00000000e-03
2.00000000e-03
2.00000000e-03
2.00000000e-03
2.00000000e-03
2.00000000e-03
2.00000000e-03
2.00000000e-03
2.00000000e-03
2.00000000e-03
2.00000000e-03
2.00000000e-03
2.00000000e-03
2.00000000e-03
2.00000000e-03
2.00000000e-03
2.00000000e-03
2.00000000e-03
2.00000000e-03
2.00000000e-03
2.00000000e-03
2.00000000e-03
2.00000000e-03
2.00000000e-03
2.00000000e-03
2.00000000e-03
2.00000000e-03
2.00000000e-03
2.00000000e-03
2.00000000e-03
2.00000000e-03
2.00000000e-03
2.00000000e-03
2.00000000e-03
2.00000000e-03
2.00000000e-03
2.00000000e-03
2.00000000e-03
2.00000000e-03
2.00000000e-03
2.00000000e-03
2.00000000e-03
2.00000000e-03
2.00000000e-03
2.00000000e-03
2.00000000e-03
2.00000000e-03
2.00000000e-03
2.00000000e-03
2.00000000e-03
2.00000000e-03
2.00000000e-03
2.00000000e-03
2.00000000e-03
2.00000000e-03
2.00000000e-03
2.00000000e-03
2.00000000e-03
2.00000000e-03
2.00000000e-03
2.00000000e-03
2.00000000e-03
2.00000000e-03
2.00000000e-03
2.00000000e-03
2.00000000e-03
2.00000000e-03
2.00000000e-03
2.00000000e-03
2.00000000e-03
2.00000000e-03
2.00000000e-03
2.00000000e-03
2.00000000e-03
2.00000000e-03
2.00000000e-03
2.00000000e-03
2.00000000e-03
2.00000000e-03
2.00000000e-03
2.00000000e-03
2.00000000e-03
2.00000000e-03
2.00000000e-03
2.00000000e-03
2.00000000e-03
2.00000000e-03
2.00000000e-03
2.00000000e-03
2.00000000e-03
2.00000000e-03
2.00000000e-03
2.00000000e-03
2.00000000e-03
2.00000000e-03
2.00000000e-03
2.00000000e-03
2.00000000e-03
2.00000000e-03
2.00000000e-03
2.00000000e-03
2.00000000e-03
2.00000000e-03
2.00000000e-03
2.00000000e-03
2.00000000e-03
2.00000000e-03
2.00000000e-03
2.00000000e-03
2.00000000e-03
2.00000000e-03
2.00000000e-03
2.00000000e-03
2.00000000e-03
