# vtk DataFile Version 2.0
Particle data
ASCII
DATASET POLYDATA
POINTS 469 double
3.56608000e-02	3.74574000e-03	8.54367000e-03
3.19731000e-02	-7.00376000e-03	1.43469000e-02
2.57206000e-02	-1.66764000e-02	5.84830000e-03
-9.58914000e-04	-2.55734000e-02	9.83903000e-03
2.63838000e-02	-7.62030000e-03	2.62269000e-03
3.92609000e-02	7.26534000e-03	2.77824000e-03
3.29364000e-02	1.94976000e-03	1.20540000e-02
9.92259000e-03	-1.52242000e-02	1.80903000e-02
3.29867000e-02	-1.61667000e-02	1.81006000e-02
2.29405000e-03	-3.76905000e-02	1.81010000e-02
3.76563000e-02	1.30611000e-02	1.80543000e-02
3.11866000e-02	-4.65618000e-03	1.80999000e-02
2.80952000e-02	-2.84371000e-02	1.20280000e-02
2.39979000e-02	-1.41710000e-02	3.14654000e-03
3.87559000e-02	9.29662000e-03	1.45131000e-02
-3.50121000e-03	-3.93553000e-02	1.13300000e-02
5.04249000e-03	-1.90848000e-02	1.14182000e-02
3.45402000e-02	-1.03963000e-02	1.99950000e-03
4.56922000e-03	-2.28360000e-02	1.27690000e-02
3.24951000e-02	1.18030000e-02	1.15716000e-02
2.72046000e-02	1.08207000e-02	2.00089000e-03
3.04788000e-02	-2.11212000e-02	1.80999000e-02
-1.24875000e-02	-3.79909000e-02	2.07639000e-03
1.80608000e-02	-1.42094000e-02	1.99987000e-03
2.11321000e-02	-1.67717000e-02	1.99935000e-03
6.80150000e-03	-3.55470000e-02	8.73699000e-03
1.86086000e-02	1.09173000e-02	1.22199000e-02
3.33880000e-02	-1.45762000e-02	1.36758000e-02
-1.16251000e-03	-2.21575000e-02	6.79568000e-03
1.53652000e-02	-9.95462000e-03	1.43804000e-02
3.10630000e-02	-1.40373000e-02	1.01675000e-02
3.91966000e-02	-7.88263000e-03	2.00011000e-03
3.47651000e-02	-8.73944000e-03	5.65544000e-03
2.00419000e-02	-2.16009000e-02	1.81005000e-02
1.54623000e-02	-3.68599000e-02	1.10480000e-02
2.83226000e-02	-1.78785000e-02	1.15177000e-02
3.88351000e-02	8.10323000e-03	6.66578000e-03
5.84334000e-03	-1.46521000e-03	1.09043000e-02
3.20885000e-02	-1.86346000e-03	1.11967000e-02
2.11468000e-02	-1.16055000e-02	2.01134000e-03
1.16017000e-02	-1.95984000e-03	6.97895000e-03
3.92207000e-02	-7.72798000e-03	1.45601000e-02
1.33200000e-02	-3.76977000e-02	2.47466000e-03
2.23329000e-02	-2.62205000e-03	1.49046000e-02
1.14102000e-02	-2.70247000e-02	1.68985000e-02
2.63043000e-02	7.07320000e-03	1.15325000e-02
2.33518000e-02	5.12485000e-03	1.49957000e-02
1.52322000e-02	-6.07959000e-03	7.71835000e-03
1.11379000e-02	-1.72684000e-02	1.14122000e-02
2.81546000e-02	1.36766000e-03	1.76678000e-02
1.22123000e-02	-1.04518000e-02	2.14206000e-03
1.26751000e-02	-1.85525000e-02	7.93141000e-03
-1.80236000e-03	-2.14432000e-02	1.07325000e-02
1.12683000e-02	-1.50418000e-02	6.62319000e-03
1.47864000e-03	-3.65626000e-02	1.01794000e-02
3.39504000e-03	-9.15340000e-03	1.42055000e-02
-2.95696000e-04	-3.99520000e-02	8.98933000e-03
2.62198000e-02	8.36533000e-03	1.53156000e-02
1.61577000e-02	-3.27815000e-02	1.43994000e-02
1.02499000e-02	-3.05612000e-02	1.54265000e-02
1.83082000e-02	-3.16257000e-02	1.80544000e-02
1.89309000e-02	-2.35413000e-02	1.01559000e-02
2.05692000e-02	-8.68368000e-03	1.75240000e-02
-7.70001000e-03	-3.54504000e-02	9.59999000e-03
2.87646000e-02	-1.96715000e-02	4.38752000e-03
3.24970000e-02	1.73803000e-02	6.63323000e-03
8.82957000e-03	-3.89974000e-02	3.25161000e-03
3.09259000e-02	-8.64648000e-03	1.81004000e-02
9.67353000e-03	-3.51342000e-02	5.98354000e-03
2.55773000e-02	-3.06689000e-02	9.86498000e-03
1.74956000e-02	4.98796000e-03	4.59970000e-03
3.20761000e-02	-2.04972000e-02	1.99901000e-03
3.32420000e-02	6.12503000e-03	1.78450000e-02
2.16869000e-02	7.93969000e-03	8.56321000e-03
3.97108000e-02	-3.35251000e-03	6.17604000e-03
2.22793000e-02	1.25401000e-02	1.49178000e-02
1.09694000e-02	-7.33378000e-03	9.27506000e-03
2.85193000e-02	-2.20679000e-04	1.03284000e-02
2.47913000e-02	-3.13775000e-02	1.81003000e-02
-5.44977000e-03	-3.76038000e-02	1.80987000e-02
2.40207000e-02	5.80958000e-03	5.82522000e-03
2.10000000e-02	-2.34056000e-02	6.57193000e-03
1.75238000e-02	-2.47897000e-02	2.00034000e-03
1.44093000e-02	-2.46666000e-02	1.81000000e-02
1.72812000e-02	-2.87579000e-02	2.44270000e-03
3.23745000e-02	1.60742000e-02	2.00002000e-03
3.69462000e-02	-3.83692000e-03	1.46155000e-02
-8.06592000e-03	-3.91451000e-02	1.12200000e-02
2.27299000e-02	-2.90662000e-02	6.41157000e-03
6.77508000e-03	-3.31865000e-02	4.03361000e-03
2.42347000e-02	1.05761000e-02	5.07037000e-03
2.96794000e-02	2.89582000e-03	2.00156000e-03
3.22248000e-02	-1.96763000e-02	6.39679000e-03
1.91683000e-02	1.16485000e-02	8.13475000e-03
2.81427000e-02	-1.32474000e-02	6.47902000e-03
3.55329000e-02	-1.82693000e-02	8.18146000e-03
-9.07914000e-03	-3.62596000e-02	5.93234000e-03
7.64693000e-03	-3.56936000e-02	1.26439000e-02
2.18727000e-02	-1.51217000e-02	1.80974000e-02
2.41767000e-02	-1.31489000e-02	7.04445000e-03
6.28893000e-03	-3.05220000e-02	8.28796000e-03
8.12512000e-03	-3.18569000e-02	1.16183000e-02
-8.14501000e-03	-2.58219000e-02	1.80641000e-02
2.82945000e-02	-2.82471000e-02	1.72931000e-02
1.00975000e-02	-3.14625000e-02	7.50960000e-03
1.77362000e-02	-6.37132000e-03	2.43816000e-03
1.02216000e-02	-1.92984000e-02	4.74737000e-03
9.06662000e-03	-2.17825000e-02	7.66308000e-03
5.89909000e-03	-3.65439000e-02	2.04509000e-03
2.72659000e-02	-5.10521000e-03	5.60211000e-03
-9.21488000e-04	-3.71577000e-02	1.99972000e-03
2.58355000e-02	1.12083000e-02	1.81010000e-02
2.29658000e-02	4.75605000e-03	1.06279000e-02
-6.05958000e-04	-2.67285000e-02	3.54292000e-03
2.10249000e-02	-2.60845000e-02	1.45165000e-02
1.10310000e-02	-3.15166000e-02	1.99985000e-03
1.09297000e-02	-8.81768000e-04	1.07732000e-02
-7.00995000e-04	-3.99407000e-02	4.86397000e-03
2.89243000e-02	-1.06847000e-02	1.05838000e-02
3.93016000e-02	-7.01815000e-03	7.72197000e-03
3.12036000e-02	7.06693000e-03	1.99975000e-03
1.79125000e-02	-1.62437000e-02	1.59840000e-02
3.40178000e-02	1.47509000e-02	1.80964000e-02
2.25304000e-02	-3.30262000e-02	5.88897000e-03
3.09272000e-02	-2.53454000e-02	1.80992000e-02
3.19794000e-02	1.35263000e-02	5.69592000e-03
3.96018000e-02	4.16833000e-03	5.91646000e-03
3.19935000e-02	-2.77955000e-03	7.30483000e-03
6.46863000e-03	-8.45701000e-03	1.09567000e-02
1.34380000e-02	-6.49467000e-03	1.99933000e-03
1.11466000e-02	-5.48384000e-03	5.13354000e-03
3.24779000e-02	-2.33309000e-02	4.79090000e-03
2.24159000e-02	7.47376000e-03	1.80989000e-02
3.56632000e-02	-9.04184000e-03	1.32898000e-02
1.85672000e-02	-1.45337000e-02	8.79485000e-03
1.94585000e-02	-3.48312000e-02	1.34419000e-02
3.12839000e-02	-1.28858000e-02	3.82775000e-03
3.61140000e-02	4.85667000e-03	1.99983000e-03
1.64818000e-02	-1.66288000e-02	1.21670000e-02
1.31270000e-02	-4.87256000e-03	1.56735000e-02
1.74360000e-02	-2.85643000e-02	1.56333000e-02
3.15765000e-02	1.10492000e-02	2.02009000e-03
3.02885000e-02	1.00603000e-02	1.44164000e-02
5.40787000e-03	-4.76681000e-03	5.55553000e-03
3.12341000e-02	3.71932000e-03	8.89676000e-03
3.58358000e-02	1.42693000e-02	2.88651000e-03
-7.66497000e-03	-3.92403000e-02	2.02393000e-03
3.81708000e-02	1.10803000e-02	2.27424000e-03
1.66653000e-02	-1.95318000e-02	8.43329000e-03
4.97815000e-03	-3.29160000e-02	1.46560000e-02
2.69999000e-02	3.45971000e-03	9.96939000e-03
1.23887000e-02	-2.39908000e-02	8.08044000e-03
3.98573000e-02	2.05772000e-03	1.16014000e-02
2.66093000e-02	1.20997000e-02	1.39093000e-02
9.22170000e-03	-1.10320000e-02	8.68446000e-03
-3.03117000e-03	-2.65601000e-02	1.39102000e-02
3.99891000e-02	2.70061000e-04	4.50398000e-03
2.26644000e-02	-9.87815000e-03	5.30983000e-03
2.56410000e-02	-3.06820000e-02	1.42545000e-02
2.57881000e-02	-5.27379000e-04	2.20015000e-03
3.31631000e-02	-1.52733000e-02	6.99604000e-03
3.98330000e-02	3.38446000e-03	1.99948000e-03
2.06866000e-02	-3.16595000e-02	9.24400000e-03
-1.05328000e-03	-1.66046000e-02	1.68132000e-02
1.68522000e-02	-2.08469000e-02	2.00072000e-03
2.86963000e-02	-5.01329000e-03	1.32112000e-02
1.35646000e-02	-1.02863000e-02	1.00319000e-02
3.30682000e-02	9.21510000e-03	5.83030000e-03
-5.90321000e-03	-3.36093000e-02	1.80732000e-02
-6.32446000e-03	-3.94391000e-02	6.82854000e-03
3.93714000e-02	5.53265000e-03	9.68250000e-03
1.08026000e-02	-3.48827000e-02	1.03095000e-02
1.73108000e-02	-5.77390000e-03	1.11246000e-02
3.30102000e-02	-3.17634000e-03	1.48604000e-02
2.88280000e-02	2.59286000e-03	5.90102000e-03
3.58661000e-02	-9.15671000e-04	1.21068000e-02
3.80384000e-02	-1.23372000e-02	2.00058000e-03
2.63373000e-02	-2.48553000e-02	1.81009000e-02
3.99346000e-02	-1.91559000e-03	1.80825000e-02
1.62338000e-02	-2.33155000e-02	7.21124000e-03
3.19418000e-03	-1.99908000e-02	7.80754000e-03
1.97790000e-02	-2.68283000e-02	4.90076000e-03
2.71474000e-02	-2.47815000e-03	1.81007000e-02
-1.30820000e-02	-3.59723000e-02	1.17028000e-02
2.31585000e-02	-2.01412000e-02	1.16671000e-02
3.98211000e-02	-1.45826000e-03	9.69670000e-03
3.39948000e-02	8.71752000e-03	1.36362000e-02
3.76538000e-02	-1.33918000e-02	1.43931000e-02
2.29720000e-02	-2.98730000e-04	1.80997000e-02
3.97770000e-02	-3.92502000e-03	2.00012000e-03
-3.01819000e-04	-3.55490000e-02	1.58560000e-02
1.83014000e-02	-2.31872000e-02	1.40898000e-02
-1.19029000e-02	-3.81220000e-02	1.48848000e-02
-1.14173000e-02	-3.23270000e-02	1.13878000e-02
2.14088000e-02	-1.57825000e-02	5.86378000e-03
1.10439000e-02	-1.13090000e-02	1.65364000e-02
2.42458000e-02	-2.37981000e-02	1.04663000e-02
3.39479000e-03	-2.59734000e-02	1.04331000e-02
2.29008000e-02	-4.56147000e-03	1.00425000e-02
5.68018000e-03	-3.55624000e-02	1.80834000e-02
2.61085000e-02	1.33350000e-02	1.01332000e-02
2.60694000e-02	9.68030000e-03	8.50952000e-03
-9.26767000e-03	-3.88858000e-02	1.80990000e-02
3.11960000e-02	-2.49287000e-02	1.17728000e-02
3.77366000e-03	-3.67358000e-02	1.45104000e-02
2.20461000e-02	2.33066000e-03	7.57511000e-03
1.03527000e-02	-1.43333000e-02	1.40126000e-02
1.62598000e-02	5.24329000e-03	1.59422000e-02
2.96544000e-02	-1.52702000e-02	1.49251000e-02
1.05253000e-02	-8.83967000e-03	1.31124000e-02
1.58253000e-02	-3.67166000e-02	1.50295000e-02
7.40400000e-03	-2.98006000e-02	1.99976000e-03
1.24768000e-02	-3.43730000e-02	1.42128000e-02
1.38711000e-02	-2.95152000e-02	1.40890000e-02
3.25565000e-02	-1.09022000e-02	1.50159000e-02
2.52203000e-02	-1.78179000e-02	2.04782000e-03
[...]
POINT_DATA 469
SCALARS Radius double 1
LOOKUP_TABLE default
2.00000000e-03
2.00000000e-03
2.00000000e-03
2.00000000e-03
2.00000000e-03
2.00000000e-03
2.00000000e-03
2.00000000e-03
2.00000000e-03
2.00000000e-03
2.00000000e-03
2.00000000e-03
2.00000000e-03
2.00000000e-03
2.00000000e-03
2.00000000e-03
2.00000000e-03
2.00000000e-03
2.00000000e-03
2.00000000e-03
2.00000000e-03
2.00000000e-03
2.00000000e-03
2.00000000e-03
2.00000000e-03
2.00000000e-03
2.00000000e-03
2.00000000e-03
2.00000000e-03
2.00000000e-03
2.00000000e-03
2.00000000e-03
2.00000000e-03
2.00000000e-03
2.00000000e-03
2.00000000e-03
2.00000000e-03
2.00000000e-03
2.00000000e-03
2.00000000e-03
2.00000000e-03
2.00000000e-03
2.00000000e-03
2.00000000e-03
2.00000000e-03
2.00000000e-03
2.00000000e-03
2.00000000e-03
2.00000000e-03
2.00000000e-03
2.00000000e-03
2.00000000e-03
2.00000000e-03
2.00000000e-03
2.00000000e-03
2.00000000e-03
2.00000000e-03
2.00000000e-03
2.00000000e-03
2.00000000e-03
2.00000000e-03
2.00000000e-03
2.00000000e-03
2.00000000e-03
2.00000000e-03
2.00000000e-03
2.00000000e-03
2.00000000e-03
2.00000000e-03
2.00000000e-03
2.00000000e-03
2.00000000e-03
2.00000000e-03
2.00000000e-03
2.00000000e-03
2.00000000e-03
2.00000000e-03
2.00000000e-03
2.00000000e-03
2.00000000e-03
2.00000000e-03
2.00000000e-03
2.00000000e-03
2.00000000e-03
2.00000000e-03
2.00000000e-03
2.00000000e-03
2.00000000e-03
2.00000000e-03
2.00000000e-03
2.00000000e-03
2.00000000e-03
2.00000000e-03
2.00000000e-03
2.00000000e-03
2.00000000e-03
2.00000000e-03
2.00000000e-03
2.00000000e-03
2.00000000e-03
2.00000000e-03
2.00000000e-03
2.00000000e-03
2.00000000e-03
2.00000000e-03
2.00000000e-03
2.00000000e-03
2.00000000e-03
2.00000000e-03
2.00000000e-03
2.00000000e-03
2.00000000e-03
2.00000000e-03
2.00000000e-03
2.00000000e-03
2.00000000e-03
2.00000000e-03
2.00000000e-03
2.00000000e-03
2.00000000e-03
2.00000000e-03
2.00000000e-03
2.00000000e-03
2.00000000e-03
2.00000000e-03
2.00000000e-03
2.00000000e-03
2.00000000e-03
2.00000000e-03
2.00000000e-03
2.00000000e-03
2.00000000e-03
2.00000000e-03
2.00000000e-03
2.00000000e-03
2.00000000e-03
2.00000000e-03
2.00000000e-03
2.00000000e-03
2.00000000e-03
2.00000000e-03
2.00000000e-03
2.00000000e-03
2.00000000e-03
2.00000000e-03
2.00000000e-03
2.00000000e-03
2.00000000e-03
2.00000000e-03
2.00000000e-03
2.00000000e-03
2.00000000e-03
2.00000000e-03
2.00000000e-03
2.00000000e-03
2.00000000e-03
2.00000000e-03
2.00000000e-03
2.00000000e-03
2.00000000e-03
2.00000000e-03
2.00000000e-03
2.00000000e-03
2.00000000e-03
2.00000000e-03
2.00000000e-03
2.00000000e-03
2.00000000e-03
2.00000000e-03
2.00000000e-03
2.00000000e-03
2.00000000e-03
2.00000000e-03
2.00000000e-03
2.00000000e-03
2.00000000e-03
2.00000000e-03
2.00000000e-03
2.00000000e-03
2.00000000e-03
2.00000000e-03
2.00000000e-03
2.00000000e-03
2.00000000e-03
2.00000000e-03
2.00000000e-03
2.00000000e-03
2.00000000e-03
2.00000000e-03
2.00000000e-03
2.00000000e-03
2.00000000e-03
2.00000000e-03
2.00000000e-03
2.00000000e-03
2.00000000e-03
2.00000000e-03
2.00000000e-03
2.00000000e-03
2.00000000e-03
2.00000000e-03
2.00000000e-03
2.00000000e-03
2.00000000e-03
2.00000000e-03
2.00000000e-03
2.00000000e-03
2.00000000e-03
2.00000000e-03
2.00000000e-03
2.00000000e-03
2.00000000e-03
2.00000000e-03
2.00000000e-03
2.00000000e-03
2.00000000e-03
2.00000000e-03
2.00000000e-03
2.00000000e-03
2.00000000e-03
2.00000000e-03
2.00000000e-03
2.00000000e-03
2.00000000e-03
2.00000000e-03
2.00000000e-03
2.00000000e-03
2.00000000e-03
2.00000000e-03
2.00000000e-03
2.00000000e-03
2.00000000e-03
2.00000000e-03
2.00000000e-03
2.00000000e-03
2.00000000e-03
2.00000000e-03
2.00000000e-03
2.00000000e-03
2.00000000e-03
2.00000000e-03
2.00000000e-03
2.00000000e-03
2.00000000e-03
2.00000000e-03
2.00000000e-03
2.00000000e-03
2.00000000e-03
2.00000000e-03
2.00000000e-03
2.00000000e-03
2.00000000e-03
2.00000000e-03
2.00000000e-03
2.00000000e-03
2.00000000e-03
2.00000000e-03
2.00000000e-03
2.00000000e-03
2.00000000e-03
2.00000000e-03
2.00000000e-03
2.00000000e-03
2.00000000e-03
2.00000000e-03
2.00000000e-03
2.00000000e-03
2.00000000e-03
2.00000000e-03
2.00000000e-03
2.00000000e-03
2.00000000e-03
2.00000000e-03
2.00000000e-03
2.00000000e-03
2.00000000e-03
2.00000000e-03
2.00000000e-03
2.00000000e-03
2.00000000e-03
2.00000000e-03
2.00000000e-03
2.00000000e-03
2.00000000e-03
2.00000000e-03
2.00000000e-03
2.00000000e-03
2.00000000e-03
2.00000000e-03
2.00000000e-03
2.00000000e-03
2.00000000e-03
2.00000000e-03
2.00000000e-03
2.00000000e-03
2.00000000e-03
2.00000000e-03
2.00000000e-03
2.00000000e-03
2.00000000e-03
2.00000000e-03
2.00000000e-03
2.00000000e-03
2.00000000e-03
2.00000000e-03
2.00000000e-03
2.00000000e-03
2.00000000e-03
2.00000000e-03
2.00000000e-03
2.00000000e-03
2.00000000e-03
2.00000000e-03
2.00000000e-03
2.00000000e-03
2.00000000e-03
2.00000000e-03
2.00000000e-03
2.00000000e-03
2.00000000e-03
2.00000000e-03
2.00000000e-03
2.00000000e-03
2.00000000e-03
2.00000000e-03
2.00000000e-03
2.00000000e-03
2.00000000e-03
2.00000000e-03
2.00000000e-03
2.00000000e-03
2.00000000e-03
2.00000000e-03
2.00000000e-03
2.00000000e-03
2.00000000e-03
2.00000000e-03
2.00000000e-03
2.00000000e-03
2.00000000e-03
2.00000000e-03
2.00000000e-03
2.00000000e-03
2.00000000e-03
2.00000000e-03
2.00000000e-03
2.00000000e-03
2.00000000e-03
2.00000000e-03
2.00000000e-03
2.00000000e-03
2.00000000e-03
2.00000000e-03
2.00000000e-03
2.00000000e-03
2.00000000e-03
2.00000000e-03
2.00000000e-03
2.00000000e-03
2.00000000e-03
2.00000000e-03
2.00000000e-03
2.00000000e-03
2.00000000e-03
2.00000000e-03
2.00000000e-03
2.00000000e-03
2.00000000e-03
2.00000000e-03
2.00000000e-03
2.00000000e-03
2.00000000e-03
2.00000000e-03
2.00000000e-03
2.00000000e-03
2.00000000e-03
2.00000000e-03
2.00000000e-03
2.00000000e-03
2.00000000e-03
2.00000000e-03
2.00000000e-03
2.00000000e-03
2.00000000e-03
2.00000000e-03
2.00000000e-03
2.00000000e-03
2.00000000e-03
2.00000000e-03
2.00000000e-03
2.00000000e-03
2.00000000e-03
2.00000000e-03
2.00000000e-03
2.00000000e-03
2.00000000e-03
2.00000000e-03
2.00000000e-03
2.00000000e-03
2.00000000e-03
2.00000000e-03
2.00000000e-03
2.00000000e-03
2.00000000e-03
2.00000000e-03
2.00000000e-03
2.00000000e-03
2.00000000e-03
2.00000000e-03
2.00000000e-03
2.00000000e-03
2.00000000e-03
2.00000000e-03
2.00000000e-03
2.00000000e-03
2.00000000e-03
2.00000000e-03
2.00000000e-03
2.00000000e-03
2.00000000e-03
2.00000000e-03
2.00000000e-03
2.00000000e-03
2.00000000e-03
2.00000000e-03
2.00000000e-03
2.00000000e-03
2.00000000e-03
2.00000000e-03
2.00000000e-03
2.00000000e-03
2.00000000e-03
2.00000000e-03
2.00000000e-03
2.00000000e-03
2.00000000e-03
2.00000000e-03
2.00000000e-03
2.00000000e-03
2.00000000e-03
2.00000000e-03
2.00000000e-03
2.00000000e-03
2.00000000e-03
2.00000000e-03
2.00000000e-03
2.00000000e-03
2.00000000e-03
2.00000000e-03
2.00000000e-03
2.00000000e-03
2.00000000e-03
2.00000000e-03
2.00000000e-03
2.00000000e-03
2.00000000e-03
2.00000000e-03
2.00000000e-03
2.00000000e-03
2.00000000e-03
2.00000000e-03
2.00000000e-03
2.00000000e-03
2.00000000e-03
2.00000000e-03
2.00000000e-03
2.00000000e-03
2.00000000e-03
2.00000000e-03
