# vtk DataFile Version 2.0
Particle data
ASCII
DATASET POLYDATA
POINTS 469 double
2.95322000e-02	-2.07631000e-02	8.82537000e-03
1.96604000e-02	-2.63687000e-02	1.34196000e-02
8.09261000e-03	-2.99690000e-02	5.74274000e-03
3.09361000e-02	1.45035000e-02	1.80947000e-02
1.53594000e-02	-2.42588000e-02	2.66034000e-03
3.43280000e-02	-2.04869000e-02	2.51660000e-03
2.64757000e-02	-2.06822000e-02	1.14247000e-02
2.52803000e-02	-1.95947000e-03	1.81001000e-02
1.30569000e-02	-3.39402000e-02	1.81003000e-02
-1.75344000e-03	-1.07057000e-02	1.80274000e-02
3.70428000e-02	-1.50421000e-02	1.79616000e-02
2.14224000e-02	-2.34868000e-02	1.81008000e-02
6.69701000e-04	-3.99498000e-02	1.20754000e-02
8.26233000e-03	-2.62406000e-02	2.22263000e-03
3.56069000e-02	-1.80736000e-02	1.44615000e-02
2.25798000e-02	2.98958000e-03	1.39477000e-02
3.14796000e-02	1.04906000e-02	1.48175000e-02
1.87976000e-02	-3.11298000e-02	1.99971000e-03
2.98771000e-02	9.34435000e-04	1.29904000e-02
3.63023000e-02	-1.15067000e-02	1.11086000e-02
3.55078000e-02	-7.30595000e-03	1.99883000e-03
7.78262000e-03	-3.62412000e-02	1.81006000e-02
2.04028000e-02	9.75635000e-03	9.66686000e-03
1.69514000e-02	-1.10729000e-02	2.00039000e-03
3.62332000e-03	-2.64112000e-02	2.17541000e-03
1.72369000e-02	7.95268000e-03	1.16069000e-02
3.99297000e-02	4.02197000e-04	1.38606000e-02
1.45021000e-02	-3.34931000e-02	1.36717000e-02
3.73232000e-02	1.34475000e-02	1.55398000e-02
2.01595000e-02	-1.45551000e-02	1.39283000e-02
1.35305000e-02	-3.14810000e-02	1.03543000e-02
2.43937000e-02	-3.16779000e-02	2.05340000e-03
2.00958000e-02	-2.99912000e-02	5.61633000e-03
4.79965000e-03	-2.31590000e-02	1.71320000e-02
-5.12412000e-03	-2.79941000e-02	8.87602000e-03
8.71841000e-03	-3.19184000e-02	1.16298000e-02
3.47530000e-02	-1.95910000e-02	6.55900000e-03
3.62506000e-02	4.58519000e-03	9.63742000e-03
2.29766000e-02	-2.25691000e-02	1.08406000e-02
1.40611000e-02	-1.50039000e-02	3.56494000e-03
3.63335000e-02	1.06964000e-03	7.73349000e-03
2.31292000e-02	-3.17237000e-02	1.52155000e-02
-1.17148000e-02	-3.42266000e-02	2.07591000e-03
2.39125000e-02	-1.62058000e-02	1.42033000e-02
2.27574000e-02	7.66641000e-03	1.47772000e-02
3.58449000e-02	-6.29704000e-03	1.12431000e-02
2.93511000e-02	-9.81344000e-03	1.44484000e-02
2.58105000e-02	-1.09771000e-02	6.01933000e-03
1.91715000e-02	-8.50255000e-03	1.53531000e-02
2.31119000e-02	-1.75700000e-02	1.81001000e-02
2.03134000e-02	-1.32429000e-02	1.99955000e-03
1.80859000e-02	-1.33890000e-02	5.34759000e-03
2.93551000e-02	8.94709000e-03	1.78341000e-02
2.40936000e-02	-4.43007000e-03	5.95641000e-03
1.98738000e-02	4.24048000e-03	9.63718000e-03
3.83072000e-02	9.42792000e-03	1.42438000e-02
5.55032000e-04	-1.25162000e-02	9.07041000e-03
3.24510000e-02	-7.42266000e-03	1.52711000e-02
1.15526000e-02	-5.47491000e-03	1.16719000e-02
3.51087000e-03	-1.25106000e-02	1.80531000e-02
-9.10508000e-03	-3.53201000e-02	1.81001000e-02
1.03377000e-02	-1.50392000e-02	1.03052000e-02
1.85189000e-02	-1.60628000e-02	1.77429000e-02
3.22684000e-02	1.07953000e-02	1.09084000e-02
7.33847000e-03	-3.34687000e-02	3.95931000e-03
3.89909000e-02	-8.64912000e-03	6.36347000e-03
-1.84807000e-02	-3.52075000e-02	2.83461000e-03
1.88021000e-02	-2.65242000e-02	1.80792000e-02
1.30695000e-02	1.50369000e-03	7.37435000e-03
-3.10690000e-03	-3.98048000e-02	9.56015000e-03
3.98291000e-02	3.25505000e-03	6.13696000e-03
8.90627000e-03	-3.69378000e-02	1.99963000e-03
3.08406000e-02	-1.51916000e-02	1.80974000e-02
3.67654000e-02	-2.83082000e-03	8.50133000e-03
2.74262000e-02	-2.88603000e-02	5.86425000e-03
3.99360000e-02	-1.14701000e-03	1.81001000e-02
3.16989000e-02	1.46800000e-03	6.64661000e-03
2.32325000e-02	-1.88218000e-02	9.46884000e-03
-4.33729000e-03	-3.97559000e-02	1.79752000e-02
1.73008000e-02	-2.74163000e-03	1.73062000e-02
3.21941000e-02	-6.26958000e-03	5.60126000e-03
6.87385000e-03	-2.21440000e-02	7.08480000e-03
-1.16570000e-03	-2.56866000e-02	2.07796000e-03
2.61280000e-03	-1.99490000e-02	1.80997000e-02
-3.18670000e-03	-2.81351000e-02	4.58620000e-03
3.88303000e-02	-9.53145000e-03	1.99959000e-03
2.52624000e-02	-2.74552000e-02	1.48734000e-02
2.73014000e-02	1.07329000e-02	1.31776000e-02
-4.01528000e-03	-3.68612000e-02	6.58416000e-03
2.15701000e-02	-1.32926000e-03	6.01987000e-03
3.60617000e-02	-4.99276000e-03	5.21249000e-03
2.59254000e-02	-1.71976000e-02	1.99885000e-03
9.16327000e-03	-3.62462000e-02	6.18415000e-03
3.98978000e-02	1.37554000e-03	9.66687000e-03
1.22606000e-02	-2.88515000e-02	7.32413000e-03
1.33222000e-02	-3.76975000e-02	8.34315000e-03
2.81072000e-02	9.80264000e-03	7.07027000e-03
1.43374000e-02	-2.35420000e-04	1.62072000e-02
9.85753000e-03	-2.32377000e-02	1.80663000e-02
1.20429000e-02	-2.04455000e-02	8.77138000e-03
1.60736000e-02	-6.16691000e-04	3.90050000e-03
1.77073000e-02	-2.88661000e-03	9.37455000e-03
3.10959000e-02	6.40704000e-03	1.36886000e-02
5.79395000e-04	-3.99859000e-02	1.71903000e-02
1.30839000e-02	-2.37177000e-03	8.53397000e-03
2.32046000e-02	-1.04817000e-02	1.99885000e-03
2.28105000e-02	4.69306000e-03	1.99949000e-03
1.87934000e-02	-9.26334000e-03	5.25202000e-03
-1.60129000e-02	-3.14963000e-02	2.03673000e-03
1.81106000e-02	-2.24742000e-02	5.00667000e-03
2.17049000e-02	2.58449000e-03	5.21272000e-03
3.65102000e-02	-3.21183000e-03	1.81002000e-02
3.23774000e-02	-9.03120000e-03	1.14662000e-02
2.76320000e-02	6.57467000e-03	1.99965000e-03
-2.51446000e-03	-3.34860000e-02	1.45454000e-02
1.21248000e-02	-7.12568000e-04	2.00381000e-03
3.92928000e-02	7.10689000e-03	1.02545000e-02
6.20248000e-03	-1.46700000e-02	7.61343000e-03
1.45892000e-02	-2.76462000e-02	1.07671000e-02
2.45123000e-02	-3.15678000e-02	6.28248000e-03
2.94264000e-02	-1.39306000e-02	1.99980000e-03
1.40184000e-02	-1.77496000e-02	1.58065000e-02
3.83611000e-02	-1.12929000e-02	1.75112000e-02
-7.07852000e-03	-3.93612000e-02	5.97991000e-03
4.54953000e-03	-3.97320000e-02	1.79809000e-02
3.58090000e-02	-1.04128000e-02	4.52972000e-03
3.27302000e-02	-2.28303000e-02	5.36959000e-03
2.16610000e-02	-2.36435000e-02	7.22041000e-03
3.47251000e-02	8.23695000e-03	9.05988000e-03
2.95620000e-02	3.03245000e-03	2.05351000e-03
3.59577000e-02	4.39908000e-03	5.54697000e-03
7.15097000e-03	-3.93501000e-02	4.66318000e-03
3.27634000e-02	-4.61223000e-03	1.81000000e-02
1.97840000e-02	-3.03062000e-02	1.27355000e-02
1.62003000e-02	-1.77419000e-02	9.22771000e-03
-9.34481000e-03	-3.65898000e-02	1.36401000e-02
1.40409000e-02	-3.12376000e-02	3.89348000e-03
3.03665000e-02	-2.07832000e-02	2.05472000e-03
1.72627000e-02	-5.26650000e-03	1.37319000e-02
3.61800000e-02	4.42016000e-03	1.75690000e-02
-6.63425000e-03	-3.26434000e-02	1.64482000e-02
3.29307000e-02	-1.15593000e-02	1.99985000e-03
3.42173000e-02	-1.09221000e-02	1.44718000e-02
3.92297000e-02	7.19973000e-03	5.85770000e-03
2.92498000e-02	-1.67764000e-02	8.34477000e-03
3.77069000e-02	-1.33288000e-02	2.55628000e-03
2.54597000e-02	1.20597000e-02	9.88034000e-03
3.62020000e-02	-1.69918000e-02	1.99980000e-03
2.03989000e-02	-5.20813000e-03	7.36554000e-03
4.49548000e-03	-1.64215000e-02	1.79843000e-02
3.08089000e-02	-1.33494000e-02	1.09792000e-02
2.00361000e-02	3.72792000e-03	1.76745000e-02
3.12171000e-02	-2.49347000e-02	1.15320000e-02
3.96823000e-02	-3.46484000e-03	1.48505000e-02
2.39795000e-02	-1.13523000e-02	1.15440000e-02
2.64334000e-02	-5.64936000e-03	1.05814000e-02
3.02466000e-02	-2.60435000e-02	5.53319000e-03
1.39314000e-02	-2.18382000e-02	5.50563000e-03
-2.80646000e-03	-3.98919000e-02	1.42824000e-02
2.72018000e-02	-1.06071000e-02	2.00047000e-03
1.37424000e-02	-3.40705000e-02	6.71052000e-03
3.15210000e-02	-2.46115000e-02	1.99885000e-03
-7.32251000e-03	-3.51870000e-02	1.04776000e-02
3.27364000e-02	6.58121000e-03	1.81000000e-02
7.19157000e-03	-1.82971000e-02	2.12503000e-03
1.93739000e-02	-2.24327000e-02	1.27756000e-02
2.18004000e-02	-1.22241000e-02	7.29675000e-03
3.32040000e-02	-1.44731000e-02	4.72630000e-03
3.50935000e-02	1.55623000e-02	1.81001000e-02
2.10019000e-02	3.33552000e-04	9.66771000e-03
3.32653000e-02	-2.21286000e-02	9.27058000e-03
5.99916000e-03	-1.08963000e-02	8.97748000e-03
2.74692000e-02	-9.49573000e-03	1.09340000e-02
2.28940000e-02	-2.42596000e-02	1.44634000e-02
2.46286000e-02	-1.73735000e-02	5.78020000e-03
2.66490000e-02	-2.45170000e-02	1.25446000e-02
1.91243000e-02	-3.51155000e-02	2.00363000e-03
2.03097000e-03	-3.63264000e-02	1.78952000e-02
2.88288000e-02	-2.76972000e-02	1.81000000e-02
1.88368000e-02	-3.52854000e-03	4.03268000e-03
3.29962000e-02	1.41961000e-02	1.46777000e-02
-1.94841000e-03	-3.13833000e-02	6.56608000e-03
1.97246000e-02	-1.98659000e-02	1.80276000e-02
2.96734000e-02	1.34722000e-02	6.79697000e-03
7.55341000e-03	-2.62584000e-02	7.19632000e-03
2.90874000e-02	-2.73754000e-02	9.18591000e-03
3.36729000e-02	-1.47372000e-02	1.34019000e-02
2.06913000e-02	-3.41722000e-02	1.31993000e-02
2.69176000e-02	-1.06254000e-02	1.81001000e-02
2.84361000e-02	-2.81185000e-02	1.99884000e-03
2.52937000e-02	9.53040000e-03	1.80850000e-02
3.24095000e-03	-2.03397000e-02	1.36557000e-02
2.21031000e-02	1.13778000e-02	1.34281000e-02
3.62278000e-02	1.35561000e-02	8.00996000e-03
1.02666000e-02	-1.85638000e-02	5.67193000e-03
2.76494000e-02	1.30700000e-03	1.80581000e-02
2.90121000e-03	-2.66113000e-02	1.21015000e-02
2.18495000e-02	-7.96947000e-03	1.16723000e-02
2.37031000e-02	-1.48543000e-02	9.63327000e-03
1.75166000e-02	1.18436000e-02	1.79939000e-02
3.98553000e-02	-2.39442000e-03	1.10016000e-02
3.51404000e-02	-7.99331000e-03	7.69049000e-03
2.74058000e-02	6.83562000e-03	9.65778000e-03
5.19186000e-03	-3.96308000e-02	1.16493000e-02
2.69380000e-02	1.41415000e-02	1.55629000e-02
3.03124000e-02	-8.81380000e-03	8.04794000e-03
2.79698000e-02	-6.06316000e-03	1.46000000e-02
3.98917000e-02	2.79074000e-03	1.74007000e-02
1.14174000e-02	-3.14066000e-02	1.51303000e-02
3.33583000e-02	-3.80114000e-04	1.44725000e-02
-1.30937000e-02	-3.59611000e-02	1.48960000e-02
2.04077000e-02	7.89107000e-03	2.17419000e-03
-1.95237000e-03	-1.78199000e-02	1.18653000e-02
1.89858000e-02	7.60438000e-04	1.31328000e-02
1.66703000e-02	-2.96529000e-02	1.51590000e-02
6.24362000e-03	-3.01588000e-02	1.99957000e-03
[...]
POINT_DATA 469
SCALARS Radius double 1
LOOKUP_TABLE default
2.00000000e-03
2.00000000e-03
2.00000000e-03
2.00000000e-03
2.00000000e-03
2.00000000e-03
2.00000000e-03
2.00000000e-03
2.00000000e-03
2.00000000e-03
2.00000000e-03
2.00000000e-03
2.00000000e-03
2.00000000e-03
2.00000000e-03
2.00000000e-03
2.00000000e-03
2.00000000e-03
2.00000000e-03
2.00000000e-03
2.00000000e-03
2.00000000e-03
2.00000000e-03
2.00000000e-03
2.00000000e-03
2.00000000e-03
2.00000000e-03
2.00000000e-03
2.00000000e-03
2.00000000e-03
2.00000000e-03
2.00000000e-03
2.00000000e-03
2.00000000e-03
2.00000000e-03
2.00000000e-03
2.00000000e-03
2.00000000e-03
2.00000000e-03
2.00000000e-03
2.00000000e-03
2.00000000e-03
2.00000000e-03
2.00000000e-03
2.00000000e-03
2.00000000e-03
2.00000000e-03
2.00000000e-03
2.00000000e-03
2.00000000e-03
2.00000000e-03
2.00000000e-03
2.00000000e-03
2.00000000e-03
2.00000000e-03
2.00000000e-03
2.00000000e-03
2.00000000e-03
2.00000000e-03
2.00000000e-03
2.00000000e-03
2.00000000e-03
2.00000000e-03
2.00000000e-03
2.00000000e-03
2.00000000e-03
2.00000000e-03
2.00000000e-03
2.00000000e-03
2.00000000e-03
2.00000000e-03
2.00000000e-03
2.00000000e-03
2.00000000e-03
2.00000000e-03
2.00000000e-03
2.00000000e-03
2.00000000e-03
2.00000000e-03
2.00000000e-03
2.00000000e-03
2.00000000e-03
2.00000000e-03
2.00000000e-03
2.00000000e-03
2.00000000e-03
2.00000000e-03
2.00000000e-03
2.00000000e-03
2.00000000e-03
2.00000000e-03
2.00000000e-03
2.00000000e-03
2.00000000e-03
2.00000000e-03
2.00000000e-03
2.00000000e-03
2.00000000e-03
2.00000000e-03
2.00000000e-03
2.00000000e-03
2.00000000e-03
2.00000000e-03
2.00000000e-03
2.00000000e-03
2.00000000e-03
2.00000000e-03
2.00000000e-03
2.00000000e-03
2.00000000e-03
2.00000000e-03
2.00000000e-03
2.00000000e-03
2.00000000e-03
2.00000000e-03
2.00000000e-03
2.00000000e-03
2.00000000e-03
2.00000000e-03
2.00000000e-03
2.00000000e-03
2.00000000e-03
2.00000000e-03
2.00000000e-03
2.00000000e-03
2.00000000e-03
2.00000000e-03
2.00000000e-03
2.00000000e-03
2.00000000e-03
2.00000000e-03
2.00000000e-03
2.00000000e-03
2.00000000e-03
2.00000000e-03
2.00000000e-03
2.00000000e-03
2.00000000e-03
2.00000000e-03
2.00000000e-03
2.00000000e-03
2.00000000e-03
2.00000000e-03
2.00000000e-03
2.00000000e-03
2.00000000e-03
2.00000000e-03
2.00000000e-03
2.00000000e-03
2.00000000e-03
2.00000000e-03
2.00000000e-03
2.00000000e-03
2.00000000e-03
2.00000000e-03
2.00000000e-03
2.00000000e-03
2.00000000e-03
2.00000000e-03
2.00000000e-03
2.00000000e-03
2.00000000e-03
2.00000000e-03
2.00000000e-03
2.00000000e-03
2.00000000e-03
2.00000000e-03
2.00000000e-03
2.00000000e-03
2.00000000e-03
2.00000000e-03
2.00000000e-03
2.00000000e-03
2.00000000e-03
2.00000000e-03
2.00000000e-03
2.00000000e-03
2.00000000e-03
2.00000000e-03
2.00000000e-03
2.00000000e-03
2.00000000e-03
2.00000000e-03
2.00000000e-03
2.00000000e-03
2.00000000e-03
2.00000000e-03
2.00000000e-03
2.00000000e-03
2.00000000e-03
2.00000000e-03
2.00000000e-03
2.00000000e-03
2.00000000e-03
2.00000000e-03
2.00000000e-03
2.00000000e-03
2.00000000e-03
2.00000000e-03
2.00000000e-03
2.00000000e-03
2.00000000e-03
2.00000000e-03
2.00000000e-03
2.00000000e-03
2.00000000e-03
2.00000000e-03
2.00000000e-03
2.00000000e-03
2.00000000e-03
2.00000000e-03
2.00000000e-03
2.00000000e-03
2.00000000e-03
2.00000000e-03
2.00000000e-03
2.00000000e-03
2.00000000e-03
2.00000000e-03
2.00000000e-03
2.00000000e-03
2.00000000e-03
2.00000000e-03
2.00000000e-03
2.00000000e-03
2.00000000e-03
2.00000000e-03
2.00000000e-03
2.00000000e-03
2.00000000e-03
2.00000000e-03
2.00000000e-03
2.00000000e-03
2.00000000e-03
2.00000000e-03
2.00000000e-03
2.00000000e-03
2.00000000e-03
2.00000000e-03
2.00000000e-03
2.00000000e-03
2.00000000e-03
2.00000000e-03
2.00000000e-03
2.00000000e-03
2.00000000e-03
2.00000000e-03
2.00000000e-03
2.00000000e-03
2.00000000e-03
2.00000000e-03
2.00000000e-03
2.00000000e-03
2.00000000e-03
2.00000000e-03
2.00000000e-03
2.00000000e-03
2.00000000e-03
2.00000000e-03
2.00000000e-03
2.00000000e-03
2.00000000e-03
2.00000000e-03
2.00000000e-03
2.00000000e-03
2.00000000e-03
2.00000000e-03
2.00000000e-03
2.00000000e-03
2.00000000e-03
2.00000000e-03
2.00000000e-03
2.00000000e-03
2.00000000e-03
2.00000000e-03
2.00000000e-03
2.00000000e-03
2.00000000e-03
2.00000000e-03
2.00000000e-03
2.00000000e-03
2.00000000e-03
2.00000000e-03
2.00000000e-03
2.00000000e-03
2.00000000e-03
2.00000000e-03
2.00000000e-03
2.00000000e-03
2.00000000e-03
2.00000000e-03
2.00000000e-03
2.00000000e-03
2.00000000e-03
2.00000000e-03
2.00000000e-03
2.00000000e-03
2.00000000e-03
2.00000000e-03
2.00000000e-03
2.00000000e-03
2.00000000e-03
2.00000000e-03
2.00000000e-03
2.00000000e-03
2.00000000e-03
2.00000000e-03
2.00000000e-03
2.00000000e-03
2.00000000e-03
2.00000000e-03
2.00000000e-03
2.00000000e-03
2.00000000e-03
2.00000000e-03
2.00000000e-03
2.00000000e-03
2.00000000e-03
2.00000000e-03
2.00000000e-03
2.00000000e-03
2.00000000e-03
2.00000000e-03
2.00000000e-03
2.00000000e-03
2.00000000e-03
2.00000000e-03
2.00000000e-03
2.00000000e-03
2.00000000e-03
2.00000000e-03
2.00000000e-03
2.00000000e-03
2.00000000e-03
2.00000000e-03
2.00000000e-03
2.00000000e-03
2.00000000e-03
2.00000000e-03
2.00000000e-03
2.00000000e-03
2.00000000e-03
2.00000000e-03
2.00000000e-03
2.00000000e-03
2.00000000e-03
2.00000000e-03
2.00000000e-03
2.00000000e-03
2.00000000e-03
2.00000000e-03
2.00000000e-03
2.00000000e-03
2.00000000e-03
2.00000000e-03
2.00000000e-03
2.00000000e-03
2.00000000e-03
2.00000000e-03
2.00000000e-03
2.00000000e-03
2.00000000e-03
2.00000000e-03
2.00000000e-03
2.00000000e-03
2.00000000e-03
2.00000000e-03
2.00000000e-03
2.00000000e-03
2.00000000e-03
2.00000000e-03
2.00000000e-03
2.00000000e-03
2.00000000e-03
2.00000000e-03
2.00000000e-03
2.00000000e-03
2.00000000e-03
2.00000000e-03
2.00000000e-03
2.00000000e-03
2.00000000e-03
2.00000000e-03
2.00000000e-03
2.00000000e-03
2.00000000e-03
2.00000000e-03
2.00000000e-03
2.00000000e-03
2.00000000e-03
2.00000000e-03
2.00000000e-03
2.00000000e-03
2.00000000e-03
2.00000000e-03
2.00000000e-03
2.00000000e-03
2.00000000e-03
2.00000000e-03
2.00000000e-03
2.00000000e-03
2.00000000e-03
2.00000000e-03
2.00000000e-03
2.00000000e-03
2.00000000e-03
2.00000000e-03
2.00000000e-03
2.00000000e-03
2.00000000e-03
2.00000000e-03
2.00000000e-03
2.00000000e-03
2.00000000e-03
2.00000000e-03
2.00000000e-03
2.00000000e-03
2.00000000e-03
2.00000000e-03
2.00000000e-03
2.00000000e-03
2.00000000e-03
2.00000000e-03
2.00000000e-03
2.00000000e-03
2.00000000e-03
2.00000000e-03
2.00000000e-03
2.00000000e-03
2.00000000e-03
2.00000000e-03
2.00000000e-03
2.00000000e-03
2.00000000e-03
2.00000000e-03
2.00000000e-03
2.00000000e-03
2.00000000e-03
2.00000000e-03
2.00000000e-03
2.00000000e-03
2.00000000e-03
2.00000000e-03
2.00000000e-03
2.00000000e-03
2.00000000e-03
2.00000000e-03
2.00000000e-03
2.00000000e-03
2.00000000e-03
2.00000000e-03
2.00000000e-03
2.00000000e-03
2.00000000e-03
2.00000000e-03
2.00000000e-03
2.00000000e-03
2.00000000e-03
2.00000000e-03
2.00000000e-03
2.00000000e-03
2.00000000e-03
2.00000000e-03
2.00000000e-03
2.00000000e-03
2.00000000e-03
2.00000000e-03
2.00000000e-03
2.00000000e-03
