# vtk DataFile Version 2.0
Particle data
ASCII
DATASET POLYDATA
POINTS 469 double
3.64796000e-02	-9.05832000e-05	1.38864000e-02
2.65711000e-02	9.60099000e-04	1.28419000e-02
3.20739000e-02	-2.37944000e-02	1.41403000e-02
8.19750000e-03	-1.93583000e-02	1.03448000e-02
2.68892000e-02	5.00593000e-03	3.02717000e-03
3.51213000e-02	-7.59503000e-03	2.00088000e-03
3.81170000e-02	-1.20724000e-02	1.78648000e-02
9.01761000e-03	-2.70617000e-02	1.81001000e-02
2.24794000e-02	-3.30574000e-02	1.71919000e-02
-9.66273000e-03	-3.87214000e-02	1.59702000e-02
3.60439000e-02	3.32168000e-03	7.10396000e-03
2.98571000e-02	-3.52703000e-03	1.80685000e-02
8.71117000e-03	-3.89662000e-02	7.58237000e-03
2.51640000e-02	-1.00621000e-03	4.72302000e-03
3.22744000e-02	6.96335000e-03	1.29661000e-02
-6.65148000e-03	-3.45741000e-02	1.12126000e-02
1.97362000e-02	-1.20234000e-02	9.06751000e-03
3.14590000e-02	-9.54785000e-03	2.30200000e-03
1.84720000e-02	-1.57736000e-02	1.47205000e-02
3.98928000e-02	-2.78266000e-03	4.86159000e-03
3.55686000e-02	8.87450000e-03	2.06227000e-03
2.50164000e-02	-2.64109000e-02	1.81002000e-02
1.95525000e-03	-1.18836000e-03	2.95740000e-03
3.19299000e-02	-2.08145000e-02	5.28976000e-03
3.30900000e-02	-1.27976000e-02	5.50143000e-03
-1.28880000e-02	-3.78434000e-02	1.37483000e-02
3.55561000e-02	1.46015000e-02	1.49643000e-02
3.18029000e-02	-1.68498000e-02	1.81005000e-02
4.82868000e-03	-1.17485000e-02	6.80862000e-03
1.02548000e-02	-3.08653000e-02	1.81015000e-02
2.98028000e-02	-2.43832000e-03	8.81028000e-03
2.32342000e-02	-3.24670000e-02	9.34202000e-03
2.85059000e-02	-7.32666000e-03	7.90594000e-03
2.41123000e-02	-1.84894000e-02	1.50855000e-02
6.28123000e-03	-3.58284000e-02	8.06660000e-03
2.49642000e-02	-1.43309000e-02	1.46243000e-02
3.98955000e-02	-2.04534000e-03	9.47486000e-03
2.54816000e-02	1.32592000e-02	7.96087000e-03
3.21884000e-02	-5.76518000e-03	1.41766000e-02
3.30418000e-02	1.28810000e-03	5.00043000e-03
1.61142000e-02	-2.49635000e-03	1.46063000e-02
3.06285000e-02	-1.95852000e-02	1.54296000e-02
2.46862000e-03	-3.24413000e-02	3.12772000e-03
3.63062000e-02	4.55687000e-03	1.76794000e-02
2.03556000e-02	-1.92097000e-02	1.39187000e-02
3.47481000e-02	9.05529000e-03	1.06218000e-02
2.29913000e-02	-3.55324000e-03	1.47482000e-02
2.82173000e-02	8.79267000e-03	1.41983000e-02
1.91096000e-02	-1.19402000e-02	1.37687000e-02
3.93501000e-02	7.13427000e-03	1.79765000e-02
4.31496000e-03	-2.06010000e-02	2.00598000e-03
1.91711000e-02	-3.90071000e-03	1.21495000e-02
3.05660000e-02	1.47148000e-02	1.38820000e-02
1.07643000e-02	-2.09539000e-02	2.14795000e-03
6.34058000e-03	-2.83716000e-02	5.43324000e-03
-1.01406000e-02	-3.13133000e-02	1.80976000e-02
-5.75626000e-03	-3.31494000e-02	6.11440000e-03
2.82622000e-02	1.13427000e-02	1.80911000e-02
1.46570000e-02	-2.77173000e-02	1.43452000e-02
1.17316000e-02	-3.04421000e-02	1.44103000e-02
1.60129000e-02	-3.07284000e-02	1.20334000e-02
2.55896000e-02	-1.74185000e-02	1.15258000e-02
1.17933000e-02	-1.97195000e-02	1.80651000e-02
-2.02547000e-03	-2.60746000e-02	1.33851000e-02
2.83556000e-02	-1.61257000e-02	3.67336000e-03
3.17444000e-02	8.79589000e-03	5.91705000e-03
-1.54644000e-02	-3.68811000e-02	5.06359000e-03
3.02953000e-02	-8.99233000e-03	1.57528000e-02
5.87282000e-03	-3.22308000e-02	6.37000000e-03
1.46001000e-02	-3.30962000e-02	1.99924000e-03
1.55188000e-02	-3.06353000e-03	1.03216000e-02
2.18151000e-02	-3.24508000e-02	5.60396000e-03
3.98824000e-02	2.76077000e-03	1.77754000e-02
3.98410000e-02	2.07112000e-03	1.37282000e-02
3.19821000e-02	-2.40021000e-02	2.87540000e-03
1.31970000e-02	-1.05493000e-03	1.80555000e-02
1.38651000e-02	-3.32121000e-02	5.92844000e-03
3.93398000e-02	-6.56710000e-03	6.04864000e-03
8.10252000e-03	-3.91642000e-02	1.79023000e-02
-6.44167000e-03	-3.21652000e-02	1.63089000e-02
2.76739000e-02	9.82761000e-03	9.58150000e-03
2.16153000e-02	-6.04908000e-03	9.79495000e-03
1.66594000e-02	-2.17538000e-02	7.18367000e-03
2.13253000e-02	-1.82136000e-02	1.79415000e-02
1.90421000e-02	-3.01432000e-02	3.87685000e-03
3.92878000e-02	7.40349000e-03	2.00030000e-03
2.37790000e-02	6.07803000e-04	1.80976000e-02
-2.04315000e-03	-1.27924000e-02	9.29883000e-03
2.60754000e-02	-1.86313000e-02	6.00097000e-03
1.14496000e-02	-2.62690000e-02	6.48772000e-03
3.68061000e-02	1.31131000e-02	1.14632000e-02
3.42343000e-02	5.07690000e-03	3.97209000e-03
2.82787000e-02	-2.81731000e-02	9.15914000e-03
3.62476000e-02	1.64846000e-02	4.05127000e-03
2.81624000e-02	-9.52110000e-03	1.12319000e-02
1.91444000e-02	-3.51100000e-02	1.80081000e-02
8.53041000e-03	8.23927000e-04	1.03195000e-02
6.51807000e-04	-3.66894000e-02	1.34801000e-02
2.56417000e-02	-2.12605000e-02	1.04061000e-02
3.21040000e-02	-5.57114000e-03	9.75255000e-03
6.42470000e-03	-3.33284000e-02	1.11842000e-02
1.36423000e-02	-1.61729000e-02	1.80994000e-02
1.11837000e-02	1.14262000e-03	1.49794000e-02
1.92359000e-02	-2.80087000e-02	1.47984000e-02
1.08776000e-02	-3.47494000e-02	1.67182000e-02
3.86954000e-02	9.66288000e-03	1.04026000e-02
2.36524000e-02	-1.58327000e-02	7.51648000e-03
1.30837000e-02	-3.21295000e-02	9.69763000e-03
4.46988000e-03	-2.75236000e-02	2.00079000e-03
3.08069000e-02	1.43294000e-03	8.85310000e-03
-7.78334000e-03	-3.67637000e-02	3.97122000e-03
3.31184000e-02	1.17440000e-02	1.80999000e-02
2.20474000e-02	1.28643000e-02	1.76531000e-02
1.21450000e-02	-2.24747000e-02	7.55086000e-03
1.52068000e-02	-3.44104000e-02	1.81002000e-02
5.43691000e-03	-3.49089000e-02	2.00050000e-03
3.76745000e-02	1.03382000e-02	1.42103000e-02
-1.20509000e-02	-3.43552000e-02	2.01431000e-03
2.16638000e-02	-2.99917000e-03	7.20079000e-03
3.62938000e-02	-1.67757000e-02	2.05753000e-03
3.05162000e-02	1.17529000e-02	2.01371000e-03
2.27461000e-02	-2.41820000e-02	1.20718000e-02
3.96482000e-02	-5.11885000e-03	1.71958000e-02
9.47710000e-03	-3.49181000e-02	1.99900000e-03
2.56682000e-02	-3.06646000e-02	1.80999000e-02
3.93418000e-02	6.03940000e-03	1.37715000e-02
3.56593000e-02	-9.64390000e-03	5.39352000e-03
3.67311000e-02	-6.14278000e-03	1.21606000e-02
-1.13816000e-02	-3.29713000e-02	1.46465000e-02
2.13746000e-02	9.22989000e-03	2.11436000e-03
1.03668000e-04	-1.78925000e-02	2.22066000e-03
1.77335000e-02	-3.57959000e-02	9.50963000e-03
3.04497000e-02	8.00428000e-03	1.78330000e-02
3.62113000e-02	-1.26348000e-02	8.03334000e-03
2.54239000e-02	-9.80115000e-03	7.29698000e-03
7.78004000e-03	-3.91962000e-02	1.16866000e-02
2.62462000e-02	-4.18443000e-03	6.89674000e-03
3.86413000e-02	-9.73192000e-03	1.99999000e-03
2.09458000e-02	-3.11905000e-02	1.28681000e-02
2.30431000e-02	-1.06904000e-02	1.72022000e-02
7.11510000e-03	-3.52858000e-02	1.81011000e-02
3.94062000e-02	4.01204000e-03	1.02566000e-02
2.10316000e-02	-8.45098000e-03	1.41552000e-02
3.28574000e-02	1.86066000e-02	2.35416000e-03
3.46963000e-02	-5.76473000e-03	5.53732000e-03
3.99723000e-02	1.21565000e-03	2.02011000e-03
9.30106000e-04	-9.63715000e-03	3.11295000e-03
3.38583000e-02	-3.80018000e-03	2.01920000e-03
2.28064000e-02	-9.82225000e-03	1.03821000e-02
1.56052000e-04	-3.99838000e-02	1.80593000e-02
2.45056000e-02	9.73310000e-03	1.72619000e-02
2.18840000e-02	-2.09549000e-02	9.07003000e-03
3.46345000e-02	-8.60246000e-03	9.11660000e-03
2.63811000e-02	5.29667000e-03	1.35582000e-02
9.29554000e-03	-1.89002000e-02	5.25057000e-03
-1.86446000e-02	-3.53609000e-02	1.45046000e-02
3.48729000e-02	-1.16103000e-02	2.00108000e-03
1.71167000e-02	-4.17906000e-03	5.46111000e-03
1.30741000e-02	-3.77938000e-02	1.80983000e-02
3.00703000e-02	-1.38877000e-03	4.96044000e-03
3.28957000e-02	-1.63231000e-02	9.11318000e-03
3.95519000e-02	-5.83799000e-03	2.07961000e-03
1.53211000e-02	-2.55223000e-02	7.16224000e-03
1.43691000e-02	7.00007000e-03	1.80834000e-02
1.86739000e-02	-1.87712000e-02	5.43951000e-03
3.01020000e-02	-2.13488000e-03	1.27903000e-02
7.38932000e-03	-2.54707000e-02	8.56797000e-03
3.87908000e-02	-9.62524000e-03	8.56727000e-03
-3.13382000e-03	-2.89504000e-02	1.80983000e-02
-5.44553000e-03	-2.82345000e-02	9.25993000e-03
3.59516000e-02	-1.74782000e-02	1.63271000e-02
-1.38146000e-03	-3.99675000e-02	2.00010000e-03
2.68725000e-02	1.50932000e-02	1.80991000e-02
2.84563000e-02	-3.22749000e-04	1.61281000e-02
3.99727000e-02	-1.22553000e-03	1.80909000e-02
3.09572000e-02	-2.52414000e-02	9.63496000e-03
2.45891000e-02	-1.53591000e-02	1.99985000e-03
1.88774000e-02	-3.19635000e-02	9.52978000e-03
2.83806000e-02	-2.50971000e-02	1.49685000e-02
2.65664000e-02	-2.70185000e-02	5.73382000e-03
8.61980000e-03	-2.44167000e-03	5.99403000e-03
2.65487000e-02	-1.34829000e-02	6.07088000e-03
3.83299000e-02	1.09997000e-02	1.81000000e-02
1.98362000e-02	1.47720000e-02	9.70601000e-03
2.70097000e-02	-1.45206000e-02	1.81004000e-02
3.26289000e-02	-1.23933000e-02	9.80474000e-03
1.84489000e-02	3.12274000e-03	2.01004000e-03
3.05111000e-02	-1.83825000e-02	1.15761000e-02
3.64018000e-02	5.75632000e-04	1.80472000e-02
3.25239000e-02	-1.48470000e-02	1.99923000e-03
6.16473000e-03	-2.91372000e-02	9.59542000e-03
1.73730000e-02	-1.76195000e-02	1.80943000e-02
1.10182000e-02	4.10867000e-03	1.19707000e-02
3.50206000e-02	1.91878000e-02	1.70751000e-02
2.29449000e-02	5.54850000e-03	2.02699000e-03
3.64122000e-04	-2.91326000e-02	1.23469000e-02
2.53307000e-02	-2.22418000e-02	1.44269000e-02
2.16190000e-02	-1.72848000e-02	1.06413000e-02
1.68160000e-02	-6.89536000e-03	8.91011000e-03
-3.75248000e-03	-3.66118000e-02	1.31355000e-02
3.23933000e-02	1.07693000e-02	1.41914000e-02
2.29801000e-02	9.49477000e-03	1.35314000e-02
7.67970000e-03	-9.70176000e-03	1.80831000e-02
2.39612000e-02	-2.73844000e-02	1.43670000e-02
1.96614000e-03	-3.64174000e-02	1.80994000e-02
1.80487000e-02	6.22014000e-03	5.25243000e-03
5.82863000e-03	-1.36185000e-02	1.64331000e-02
2.76534000e-02	1.07907000e-02	5.64738000e-03
2.74550000e-02	-4.41548000e-03	1.47421000e-02
1.36861000e-02	-1.15852000e-02	1.41612000e-02
7.67497000e-03	-3.28805000e-02	1.49561000e-02
8.36870000e-03	-2.57746000e-02	3.16639000e-03
3.14745000e-03	-3.97650000e-02	1.42297000e-02
2.19132000e-02	-2.45495000e-02	1.63066000e-02
1.90927000e-02	-1.37256000e-02	1.80999000e-02
2.52126000e-02	-7.47300000e-03	2.93805000e-03
[...]
POINT_DATA 469
SCALARS Radius double 1
LOOKUP_TABLE default
2.00000000e-03
2.00000000e-03
2.00000000e-03
2.00000000e-03
2.00000000e-03
2.00000000e-03
2.00000000e-03
2.00000000e-03
2.00000000e-03
2.00000000e-03
2.00000000e-03
2.00000000e-03
2.00000000e-03
2.00000000e-03
2.00000000e-03
2.00000000e-03
2.00000000e-03
2.00000000e-03
2.00000000e-03
2.00000000e-03
2.00000000e-03
2.00000000e-03
2.00000000e-03
2.00000000e-03
2.00000000e-03
2.00000000e-03
2.00000000e-03
2.00000000e-03
2.00000000e-03
2.00000000e-03
2.00000000e-03
2.00000000e-03
2.00000000e-03
2.00000000e-03
2.00000000e-03
2.00000000e-03
2.00000000e-03
2.00000000e-03
2.00000000e-03
2.00000000e-03
2.00000000e-03
2.00000000e-03
2.00000000e-03
2.00000000e-03
2.00000000e-03
2.00000000e-03
2.00000000e-03
2.00000000e-03
2.00000000e-03
2.00000000e-03
2.00000000e-03
2.00000000e-03
2.00000000e-03
2.00000000e-03
2.00000000e-03
2.00000000e-03
2.00000000e-03
2.00000000e-03
2.00000000e-03
2.00000000e-03
2.00000000e-03
2.00000000e-03
2.00000000e-03
2.00000000e-03
2.00000000e-03
2.00000000e-03
2.00000000e-03
2.00000000e-03
2.00000000e-03
2.00000000e-03
2.00000000e-03
2.00000000e-03
2.00000000e-03
2.00000000e-03
2.00000000e-03
2.00000000e-03
2.00000000e-03
2.00000000e-03
2.00000000e-03
2.00000000e-03
2.00000000e-03
2.00000000e-03
2.00000000e-03
2.00000000e-03
2.00000000e-03
2.00000000e-03
2.00000000e-03
2.00000000e-03
2.00000000e-03
2.00000000e-03
2.00000000e-03
2.00000000e-03
2.00000000e-03
2.00000000e-03
2.00000000e-03
2.00000000e-03
2.00000000e-03
2.00000000e-03
2.00000000e-03
2.00000000e-03
2.00000000e-03
2.00000000e-03
2.00000000e-03
2.00000000e-03
2.00000000e-03
2.00000000e-03
2.00000000e-03
2.00000000e-03
2.00000000e-03
2.00000000e-03
2.00000000e-03
2.00000000e-03
2.00000000e-03
2.00000000e-03
2.00000000e-03
2.00000000e-03
2.00000000e-03
2.00000000e-03
2.00000000e-03
2.00000000e-03
2.00000000e-03
2.00000000e-03
2.00000000e-03
2.00000000e-03
2.00000000e-03
2.00000000e-03
2.00000000e-03
2.00000000e-03
2.00000000e-03
2.00000000e-03
2.00000000e-03
2.00000000e-03
2.00000000e-03
2.00000000e-03
2.00000000e-03
2.00000000e-03
2.00000000e-03
2.00000000e-03
2.00000000e-03
2.00000000e-03
2.00000000e-03
2.00000000e-03
2.00000000e-03
2.00000000e-03
2.00000000e-03
2.00000000e-03
2.00000000e-03
2.00000000e-03
2.00000000e-03
2.00000000e-03
2.00000000e-03
2.00000000e-03
2.00000000e-03
2.00000000e-03
2.00000000e-03
2.00000000e-03
2.00000000e-03
2.00000000e-03
2.00000000e-03
2.00000000e-03
2.00000000e-03
2.00000000e-03
2.00000000e-03
2.00000000e-03
2.00000000e-03
2.00000000e-03
2.00000000e-03
2.00000000e-03
2.00000000e-03
2.00000000e-03
2.00000000e-03
2.00000000e-03
2.00000000e-03
2.00000000e-03
2.00000000e-03
2.00000000e-03
2.00000000e-03
2.00000000e-03
2.00000000e-03
2.00000000e-03
2.00000000e-03
2.00000000e-03
2.00000000e-03
2.00000000e-03
2.00000000e-03
2.00000000e-03
2.00000000e-03
2.00000000e-03
2.00000000e-03
2.00000000e-03
2.00000000e-03
2.00000000e-03
2.00000000e-03
2.00000000e-03
2.00000000e-03
2.00000000e-03
2.00000000e-03
2.00000000e-03
2.00000000e-03
2.00000000e-03
2.00000000e-03
2.00000000e-03
2.00000000e-03
2.00000000e-03
2.00000000e-03
2.00000000e-03
2.00000000e-03
2.00000000e-03
2.00000000e-03
2.00000000e-03
2.00000000e-03
2.00000000e-03
2.00000000e-03
2.00000000e-03
2.00000000e-03
2.00000000e-03
2.00000000e-03
2.00000000e-03
2.00000000e-03
2.00000000e-03
2.00000000e-03
2.00000000e-03
2.00000000e-03
2.00000000e-03
2.00000000e-03
2.00000000e-03
2.00000000e-03
2.00000000e-03
2.00000000e-03
2.00000000e-03
2.00000000e-03
2.00000000e-03
2.00000000e-03
2.00000000e-03
2.00000000e-03
2.00000000e-03
2.00000000e-03
2.00000000e-03
2.00000000e-03
2.00000000e-03
2.00000000e-03
2.00000000e-03
2.00000000e-03
2.00000000e-03
2.00000000e-03
2.00000000e-03
2.00000000e-03
2.00000000e-03
2.00000000e-03
2.00000000e-03
2.00000000e-03
2.00000000e-03
2.00000000e-03
2.00000000e-03
2.00000000e-03
2.00000000e-03
2.00000000e-03
2.00000000e-03
2.00000000e-03
2.00000000e-03
2.00000000e-03
2.00000000e-03
2.00000000e-03
2.00000000e-03
2.00000000e-03
2.00000000e-03
2.00000000e-03
2.00000000e-03
2.00000000e-03
2.00000000e-03
2.00000000e-03
2.00000000e-03
2.00000000e-03
2.00000000e-03
2.00000000e-03
2.00000000e-03
2.00000000e-03
2.00000000e-03
2.00000000e-03
2.00000000e-03
2.00000000e-03
2.00000000e-03
2.00000000e-03
2.00000000e-03
2.00000000e-03
2.00000000e-03
2.00000000e-03
2.00000000e-03
2.00000000e-03
2.00000000e-03
2.00000000e-03
2.00000000e-03
2.00000000e-03
2.00000000e-03
2.00000000e-03
2.00000000e-03
2.00000000e-03
2.00000000e-03
2.00000000e-03
2.00000000e-03
2.00000000e-03
2.00000000e-03
2.00000000e-03
2.00000000e-03
2.00000000e-03
2.00000000e-03
2.00000000e-03
2.00000000e-03
2.00000000e-03
2.00000000e-03
2.00000000e-03
2.00000000e-03
2.00000000e-03
2.00000000e-03
2.00000000e-03
2.00000000e-03
2.00000000e-03
2.00000000e-03
2.00000000e-03
2.00000000e-03
2.00000000e-03
2.00000000e-03
2.00000000e-03
2.00000000e-03
2.00000000e-03
2.00000000e-03
2.00000000e-03
2.00000000e-03
2.00000000e-03
2.00000000e-03
2.00000000e-03
2.00000000e-03
2.00000000e-03
2.00000000e-03
2.00000000e-03
2.00000000e-03
2.00000000e-03
2.00000000e-03
2.00000000e-03
2.00000000e-03
2.00000000e-03
2.00000000e-03
2.00000000e-03
2.00000000e-03
2.00000000e-03
2.00000000e-03
2.00000000e-03
2.00000000e-03
2.00000000e-03
2.00000000e-03
2.00000000e-03
2.00000000e-03
2.00000000e-03
2.00000000e-03
2.00000000e-03
2.00000000e-03
2.00000000e-03
2.00000000e-03
2.00000000e-03
2.00000000e-03
2.00000000e-03
2.00000000e-03
2.00000000e-03
2.00000000e-03
2.00000000e-03
2.00000000e-03
2.00000000e-03
2.00000000e-03
2.00000000e-03
2.00000000e-03
2.00000000e-03
2.00000000e-03
2.00000000e-03
2.00000000e-03
2.00000000e-03
2.00000000e-03
2.00000000e-03
2.00000000e-03
2.00000000e-03
2.00000000e-03
2.00000000e-03
2.00000000e-03
2.00000000e-03
2.00000000e-03
2.00000000e-03
2.00000000e-03
2.00000000e-03
2.00000000e-03
2.00000000e-03
2.00000000e-03
2.00000000e-03
2.00000000e-03
2.00000000e-03
2.00000000e-03
2.00000000e-03
2.00000000e-03
2.00000000e-03
2.00000000e-03
2.00000000e-03
2.00000000e-03
2.00000000e-03
2.00000000e-03
2.00000000e-03
2.00000000e-03
2.00000000e-03
2.00000000e-03
2.00000000e-03
2.00000000e-03
2.00000000e-03
2.00000000e-03
2.00000000e-03
2.00000000e-03
2.00000000e-03
2.00000000e-03
2.00000000e-03
2.00000000e-03
2.00000000e-03
2.00000000e-03
2.00000000e-03
2.00000000e-03
2.00000000e-03
2.00000000e-03
2.00000000e-03
2.00000000e-03
2.00000000e-03
2.00000000e-03
2.00000000e-03
2.00000000e-03
2.00000000e-03
2.00000000e-03
2.00000000e-03
2.00000000e-03
2.00000000e-03
2.00000000e-03
2.00000000e-03
2.00000000e-03
2.00000000e-03
2.00000000e-03
2.00000000e-03
2.00000000e-03
2.00000000e-03
2.00000000e-03
2.00000000e-03
2.00000000e-03
2.00000000e-03
2.00000000e-03
2.00000000e-03
2.00000000e-03
2.00000000e-03
2.00000000e-03
2.00000000e-03
2.00000000e-03
2.00000000e-03
2.00000000e-03
2.00000000e-03
2.00000000e-03
2.00000000e-03
2.00000000e-03
2.00000000e-03
2.00000000e-03
2.00000000e-03
2.00000000e-03
2.00000000e-03
2.00000000e-03
2.00000000e-03
2.00000000e-03
2.00000000e-03
2.00000000e-03
2.00000000e-03
