# vtk DataFile Version 2.0
Particle data
ASCII
DATASET POLYDATA
POINTS 469 double
3.64117000e-02	2.41962000e-03	1.40783000e-02
2.48044000e-02	1.56609000e-03	1.32251000e-02
3.40537000e-02	-2.08517000e-02	1.41073000e-02
6.12248000e-03	-2.60233000e-02	1.27512000e-02
2.58857000e-02	6.15032000e-03	3.37944000e-03
3.55324000e-02	-4.37506000e-03	1.99974000e-03
3.90474000e-02	-8.61182000e-03	1.78513000e-02
1.07166000e-02	-2.65615000e-02	1.80658000e-02
2.53667000e-02	-3.08992000e-02	1.71974000e-02
-7.13502000e-03	-3.93289000e-02	1.53260000e-02
3.55309000e-02	5.54532000e-03	7.03059000e-03
2.99630000e-02	-1.04482000e-03	1.80001000e-02
1.21214000e-02	-3.80396000e-02	7.73927000e-03
2.38951000e-02	3.96267000e-04	5.23628000e-03
3.05664000e-02	8.68849000e-03	1.23255000e-02
-4.86062000e-03	-3.56190000e-02	1.13079000e-02
2.03154000e-02	-1.04947000e-02	9.24701000e-03
3.21317000e-02	-6.82698000e-03	2.30267000e-03
1.95520000e-02	-1.43844000e-02	1.45042000e-02
3.99695000e-02	4.36562000e-04	4.97532000e-03
3.47599000e-02	1.05921000e-02	2.00483000e-03
2.73510000e-02	-2.39913000e-02	1.81004000e-02
-6.97008000e-03	-2.15496000e-02	3.07589000e-03
3.36153000e-02	-1.78485000e-02	5.32812000e-03
3.38807000e-02	-9.80989000e-03	5.53727000e-03
-1.08021000e-02	-3.84322000e-02	1.40050000e-02
3.30701000e-02	1.44463000e-02	1.58121000e-02
3.32028000e-02	-1.39994000e-02	1.81004000e-02
-4.35190000e-03	-2.92069000e-02	4.06347000e-03
1.29772000e-02	-2.98599000e-02	1.81008000e-02
2.95277000e-02	-1.65858000e-04	8.79792000e-03
2.60995000e-02	-3.02096000e-02	9.36576000e-03
2.89077000e-02	-5.10113000e-03	7.79767000e-03
2.56234000e-02	-1.63143000e-02	1.51207000e-02
9.11268000e-03	-3.54934000e-02	8.39160000e-03
2.59861000e-02	-1.23069000e-02	1.45424000e-02
3.99196000e-02	8.22011000e-04	9.69662000e-03
2.11935000e-02	1.08002000e-02	7.39891000e-03
3.24058000e-02	-2.91383000e-03	1.42105000e-02
3.26846000e-02	3.51736000e-03	5.03405000e-03
1.05970000e-02	-1.09962000e-02	1.52524000e-02
3.22329000e-02	-1.68319000e-02	1.54486000e-02
5.03848000e-03	-3.24329000e-02	2.08276000e-03
3.57152000e-02	7.61586000e-03	1.77018000e-02
2.19765000e-02	-1.75215000e-02	1.39755000e-02
3.37815000e-02	1.05306000e-02	1.08197000e-02
2.21489000e-02	-3.23905000e-03	1.55111000e-02
2.57755000e-02	8.59829000e-03	1.44632000e-02
1.95148000e-02	-1.05667000e-02	1.33104000e-02
3.86141000e-02	1.03560000e-02	1.79945000e-02
2.38597000e-03	-2.80242000e-02	1.99752000e-03
1.63463000e-02	-8.24986000e-03	1.40876000e-02
2.62127000e-02	1.36554000e-02	1.39946000e-02
1.11621000e-02	-2.26373000e-02	2.03234000e-03
8.14633000e-03	-2.82287000e-02	5.59857000e-03
-1.12874000e-02	-3.29493000e-02	1.80087000e-02
-2.20051000e-03	-3.43215000e-02	5.93308000e-03
2.45551000e-02	1.11986000e-02	1.81001000e-02
1.68676000e-02	-2.62816000e-02	1.42862000e-02
1.42210000e-02	-2.92791000e-02	1.43450000e-02
1.85351000e-02	-2.92466000e-02	1.20563000e-02
2.69108000e-02	-1.51832000e-02	1.15062000e-02
1.30795000e-02	-1.92933000e-02	1.80489000e-02
-9.24494000e-03	-3.30259000e-02	1.30301000e-02
2.95596000e-02	-1.36348000e-02	3.66140000e-03
3.04627000e-02	1.05398000e-02	6.05026000e-03
-1.33359000e-02	-3.76688000e-02	4.84292000e-03
3.08815000e-02	-6.41594000e-03	1.58074000e-02
8.07325000e-03	-3.21143000e-02	6.52927000e-03
1.75591000e-02	-3.16261000e-02	1.99898000e-03
8.73753000e-03	-1.49628000e-02	1.14092000e-02
2.46386000e-02	-3.03937000e-02	5.64757000e-03
3.94689000e-02	6.08860000e-03	1.77298000e-02
3.96774000e-02	4.72285000e-03	1.39068000e-02
3.40397000e-02	-2.09771000e-02	2.87270000e-03
7.79036000e-03	-1.04766000e-02	1.80937000e-02
1.67069000e-02	-3.18731000e-02	5.89801000e-03
3.97521000e-02	-3.42745000e-03	5.98643000e-03
1.16999000e-02	-3.82436000e-02	1.79158000e-02
-5.81798000e-03	-3.49396000e-02	1.51305000e-02
2.37992000e-02	8.64402000e-03	9.55398000e-03
2.05036000e-02	-5.15995000e-03	9.77039000e-03
1.82286000e-02	-2.02158000e-02	7.23581000e-03
2.28215000e-02	-1.63124000e-02	1.79754000e-02
2.16286000e-02	-2.83925000e-02	3.93461000e-03
3.87193000e-02	9.89256000e-03	1.99974000e-03
2.08300000e-02	-3.95544000e-04	1.80972000e-02
-1.39764000e-02	-3.02617000e-02	8.77611000e-03
2.75721000e-02	-1.62388000e-02	5.95596000e-03
1.34016000e-02	-2.53100000e-02	6.44912000e-03
3.45773000e-02	1.42345000e-02	1.21134000e-02
3.36467000e-02	7.24684000e-03	3.89360000e-03
3.06953000e-02	-2.55083000e-02	9.13078000e-03
3.55649000e-02	1.56965000e-02	4.42700000e-03
2.87543000e-02	-7.20739000e-03	1.11942000e-02
2.22274000e-02	-3.32428000e-02	1.80314000e-02
-1.62338000e-03	-1.99524000e-02	1.17615000e-02
3.72094000e-03	-3.64220000e-02	1.35716000e-02
2.73497000e-02	-1.90044000e-02	1.04092000e-02
3.20014000e-02	-3.09839000e-03	9.92571000e-03
9.09761000e-03	-3.28330000e-02	1.13746000e-02
1.48283000e-02	-1.56983000e-02	1.79787000e-02
2.73774000e-03	-1.72411000e-02	1.51757000e-02
2.14954000e-02	-2.63332000e-02	1.47351000e-02
1.39516000e-02	-3.36758000e-02	1.66928000e-02
3.78597000e-02	1.10384000e-02	1.09137000e-02
2.47002000e-02	-1.38836000e-02	7.44163000e-03
1.57635000e-02	-3.08398000e-02	9.64399000e-03
6.41140000e-03	-2.76272000e-02	2.00019000e-03
3.00454000e-02	3.79972000e-03	8.81699000e-03
-4.31373000e-03	-3.73598000e-02	3.69505000e-03
3.00942000e-02	1.30527000e-02	1.81001000e-02
1.64012000e-02	9.78441000e-03	1.69306000e-02
1.36947000e-02	-2.13943000e-02	7.21050000e-03
1.82469000e-02	-3.28578000e-02	1.80992000e-02
8.45061000e-03	-3.45193000e-02	1.99991000e-03
3.62815000e-02	1.16623000e-02	1.48256000e-02
-1.06136000e-02	-3.69582000e-02	1.99991000e-03
1.92782000e-02	-3.06661000e-03	6.45320000e-03
3.75631000e-02	-1.36954000e-02	2.00002000e-03
2.84740000e-02	1.35657000e-02	2.10686000e-03
2.47738000e-02	-2.20468000e-02	1.20573000e-02
3.99338000e-02	-1.77847000e-03	1.72359000e-02
1.25480000e-02	-3.39016000e-02	2.00279000e-03
2.82599000e-02	-2.82889000e-02	1.81000000e-02
3.87152000e-02	8.60501000e-03	1.39708000e-02
3.63627000e-02	-6.47236000e-03	5.48005000e-03
3.69665000e-02	-3.19163000e-03	1.20555000e-02
-1.24374000e-02	-3.48441000e-02	1.46759000e-02
1.67422000e-02	7.44459000e-03	2.00336000e-03
-8.19604000e-03	-3.15857000e-02	1.99131000e-03
2.09102000e-02	-3.40397000e-02	9.51603000e-03
2.80887000e-02	9.38451000e-03	1.76303000e-02
3.70785000e-02	-9.56379000e-03	7.98351000e-03
2.59525000e-02	-7.75637000e-03	7.33635000e-03
1.04582000e-02	-3.85937000e-02	1.24197000e-02
2.58614000e-02	-2.68139000e-03	6.86931000e-03
3.93860000e-02	-6.26515000e-03	1.99953000e-03
2.36267000e-02	-2.91614000e-02	1.28766000e-02
2.36892000e-02	-8.70896000e-03	1.70934000e-02
1.03008000e-02	-3.45013000e-02	1.81018000e-02
3.89294000e-02	6.39958000e-03	1.03521000e-02
2.11517000e-02	-6.95648000e-03	1.38883000e-02
3.19029000e-02	1.78120000e-02	3.13762000e-03
3.47054000e-02	-2.71353000e-03	5.54241000e-03
3.98182000e-02	3.55139000e-03	1.99933000e-03
-6.95173000e-03	-2.54444000e-02	4.00233000e-03
3.33621000e-02	-1.01526000e-03	1.99998000e-03
2.32198000e-02	-8.02813000e-03	1.04755000e-02
3.86751000e-03	-3.97970000e-02	1.80661000e-02
2.01538000e-02	8.34628000e-03	1.65994000e-02
2.35772000e-02	-1.92119000e-02	9.07051000e-03
3.52498000e-02	-5.81440000e-03	9.26511000e-03
2.35964000e-02	5.24697000e-03	1.42212000e-02
6.79995000e-03	-2.22360000e-02	3.20363000e-03
-1.60427000e-02	-3.65950000e-02	1.46965000e-02
3.58117000e-02	-8.36472000e-03	1.99972000e-03
1.29801000e-02	-1.32428000e-02	3.52697000e-03
1.64739000e-02	-3.64422000e-02	1.81001000e-02
2.96395000e-02	9.22537000e-04	4.95125000e-03
3.41673000e-02	-1.33047000e-02	9.09416000e-03
3.99157000e-02	-2.30160000e-03	2.06028000e-03
1.72184000e-02	-2.40856000e-02	7.22426000e-03
6.19061000e-03	-5.54690000e-03	1.80561000e-02
2.00428000e-02	-1.71442000e-02	5.42709000e-03
3.00805000e-02	-1.76032000e-06	1.27567000e-02
8.38090000e-03	-2.55178000e-02	8.63893000e-03
3.94536000e-02	-6.41159000e-03	8.63318000e-03
-3.13562000e-03	-3.43397000e-02	1.80657000e-02
-9.62576000e-03	-3.30681000e-02	8.51082000e-03
3.72442000e-02	-1.45413000e-02	1.67473000e-02
2.45557000e-03	-3.99161000e-02	1.99964000e-03
2.14126000e-02	1.36969000e-02	1.80479000e-02
2.77771000e-02	1.56577000e-03	1.59018000e-02
3.99290000e-02	2.13090000e-03	1.80818000e-02
3.31212000e-02	-2.23636000e-02	9.60370000e-03
2.58055000e-02	-1.33323000e-02	1.99971000e-03
2.15382000e-02	-3.00900000e-02	9.55247000e-03
3.04890000e-02	-2.24603000e-02	1.49455000e-02
2.88503000e-02	-2.45337000e-02	5.71828000e-03
-1.29132000e-04	-2.30866000e-02	6.33554000e-03
2.73590000e-02	-1.12601000e-02	6.01008000e-03
3.67714000e-02	1.39100000e-02	1.80995000e-02
1.51340000e-02	6.49357000e-03	1.07256000e-02
2.81995000e-02	-1.22364000e-02	1.81000000e-02
3.34943000e-02	-9.42674000e-03	9.79594000e-03
1.51676000e-02	-9.45018000e-03	2.02725000e-03
3.19866000e-02	-1.55815000e-02	1.15532000e-02
3.62351000e-02	3.66395000e-03	1.80290000e-02
3.37339000e-02	-1.17818000e-02	1.99861000e-03
8.21033000e-03	-2.94203000e-02	9.49155000e-03
1.88342000e-02	-1.60151000e-02	1.80853000e-02
1.15912000e-03	-1.28362000e-02	1.13465000e-02
3.43301000e-02	1.82389000e-02	1.59804000e-02
2.02446000e-02	5.40159000e-03	2.00015000e-03
7.69198000e-04	-3.02787000e-02	1.17986000e-02
2.72003000e-02	-1.99230000e-02	1.44222000e-02
2.29353000e-02	-1.55757000e-02	1.06078000e-02
1.32342000e-02	-1.13096000e-02	8.50858000e-03
-1.57174000e-03	-3.75617000e-02	1.37737000e-02
2.99426000e-02	1.21648000e-02	1.42029000e-02
1.84096000e-02	3.20676000e-03	1.26162000e-02
1.90778000e-03	-2.22079000e-02	1.80695000e-02
2.63476000e-02	-2.51040000e-02	1.43921000e-02
5.30456000e-03	-3.60647000e-02	1.81001000e-02
1.24056000e-02	-3.54693000e-03	4.32108000e-03
-3.11356000e-03	-2.48667000e-02	1.72446000e-02
2.69043000e-02	9.96112000e-03	4.10486000e-03
2.74160000e-02	-2.32153000e-03	1.46321000e-02
1.19393000e-02	-1.61938000e-02	1.39187000e-02
1.07249000e-02	-3.20816000e-02	1.49481000e-02
1.02355000e-02	-2.64727000e-02	2.67715000e-03
6.56175000e-03	-3.93507000e-02	1.42530000e-02
2.39900000e-02	-2.25318000e-02	1.63467000e-02
2.01865000e-02	-1.22510000e-02	1.80954000e-02
2.55413000e-02	-5.42589000e-03	2.96349000e-03
[...]
POINT_DATA 469
SCALARS Radius double 1
LOOKUP_TABLE default
2.00000000e-03
2.00000000e-03
2.00000000e-03
2.00000000e-03
2.00000000e-03
2.00000000e-03
2.00000000e-03
2.00000000e-03
2.00000000e-03
2.00000000e-03
2.00000000e-03
2.00000000e-03
2.00000000e-03
2.00000000e-03
2.00000000e-03
2.00000000e-03
2.00000000e-03
2.00000000e-03
2.00000000e-03
2.00000000e-03
2.00000000e-03
2.00000000e-03
2.00000000e-03
2.00000000e-03
2.00000000e-03
2.00000000e-03
2.00000000e-03
2.00000000e-03
2.00000000e-03
2.00000000e-03
2.00000000e-03
2.00000000e-03
2.00000000e-03
2.00000000e-03
2.00000000e-03
2.00000000e-03
2.00000000e-03
2.00000000e-03
2.00000000e-03
2.00000000e-03
2.00000000e-03
2.00000000e-03
2.00000000e-03
2.00000000e-03
2.00000000e-03
2.00000000e-03
2.00000000e-03
2.00000000e-03
2.00000000e-03
2.00000000e-03
2.00000000e-03
2.00000000e-03
2.00000000e-03
2.00000000e-03
2.00000000e-03
2.00000000e-03
2.00000000e-03
2.00000000e-03
2.00000000e-03
2.00000000e-03
2.00000000e-03
2.00000000e-03
2.00000000e-03
2.00000000e-03
2.00000000e-03
2.00000000e-03
2.00000000e-03
2.00000000e-03
2.00000000e-03
2.00000000e-03
2.00000000e-03
2.00000000e-03
2.00000000e-03
2.00000000e-03
2.00000000e-03
2.00000000e-03
2.00000000e-03
2.00000000e-03
2.00000000e-03
2.00000000e-03
2.00000000e-03
2.00000000e-03
2.00000000e-03
2.00000000e-03
2.00000000e-03
2.00000000e-03
2.00000000e-03
2.00000000e-03
2.00000000e-03
2.00000000e-03
2.00000000e-03
2.00000000e-03
2.00000000e-03
2.00000000e-03
2.00000000e-03
2.00000000e-03
2.00000000e-03
2.00000000e-03
2.00000000e-03
2.00000000e-03
2.00000000e-03
2.00000000e-03
2.00000000e-03
2.00000000e-03
2.00000000e-03
2.00000000e-03
2.00000000e-03
2.00000000e-03
2.00000000e-03
2.00000000e-03
2.00000000e-03
2.00000000e-03
2.00000000e-03
2.00000000e-03
2.00000000e-03
2.00000000e-03
2.00000000e-03
2.00000000e-03
2.00000000e-03
2.00000000e-03
2.00000000e-03
2.00000000e-03
2.00000000e-03
2.00000000e-03
2.00000000e-03
2.00000000e-03
2.00000000e-03
2.00000000e-03
2.00000000e-03
2.00000000e-03
2.00000000e-03
2.00000000e-03
2.00000000e-03
2.00000000e-03
2.00000000e-03
2.00000000e-03
2.00000000e-03
2.00000000e-03
2.00000000e-03
2.00000000e-03
2.00000000e-03
2.00000000e-03
2.00000000e-03
2.00000000e-03
2.00000000e-03
2.00000000e-03
2.00000000e-03
2.00000000e-03
2.00000000e-03
2.00000000e-03
2.00000000e-03
2.00000000e-03
2.00000000e-03
2.00000000e-03
2.00000000e-03
2.00000000e-03
2.00000000e-03
2.00000000e-03
2.00000000e-03
2.00000000e-03
2.00000000e-03
2.00000000e-03
2.00000000e-03
2.00000000e-03
2.00000000e-03
2.00000000e-03
2.00000000e-03
2.00000000e-03
2.00000000e-03
2.00000000e-03
2.00000000e-03
2.00000000e-03
2.00000000e-03
2.00000000e-03
2.00000000e-03
2.00000000e-03
2.00000000e-03
2.00000000e-03
2.00000000e-03
2.00000000e-03
2.00000000e-03
2.00000000e-03
2.00000000e-03
2.00000000e-03
2.00000000e-03
2.00000000e-03
2.00000000e-03
2.00000000e-03
2.00000000e-03
2.00000000e-03
2.00000000e-03
2.00000000e-03
2.00000000e-03
2.00000000e-03
2.00000000e-03
2.00000000e-03
2.00000000e-03
2.00000000e-03
2.00000000e-03
2.00000000e-03
2.00000000e-03
2.00000000e-03
2.00000000e-03
2.00000000e-03
2.00000000e-03
2.00000000e-03
2.00000000e-03
2.00000000e-03
2.00000000e-03
2.00000000e-03
2.00000000e-03
2.00000000e-03
2.00000000e-03
2.00000000e-03
2.00000000e-03
2.00000000e-03
2.00000000e-03
2.00000000e-03
2.00000000e-03
2.00000000e-03
2.00000000e-03
2.00000000e-03
2.00000000e-03
2.00000000e-03
2.00000000e-03
2.00000000e-03
2.00000000e-03
2.00000000e-03
2.00000000e-03
2.00000000e-03
2.00000000e-03
2.00000000e-03
2.00000000e-03
2.00000000e-03
2.00000000e-03
2.00000000e-03
2.00000000e-03
2.00000000e-03
2.00000000e-03
2.00000000e-03
2.00000000e-03
2.00000000e-03
2.00000000e-03
2.00000000e-03
2.00000000e-03
2.00000000e-03
2.00000000e-03
2.00000000e-03
2.00000000e-03
2.00000000e-03
2.00000000e-03
2.00000000e-03
2.00000000e-03
2.00000000e-03
2.00000000e-03
2.00000000e-03
2.00000000e-03
2.00000000e-03
2.00000000e-03
2.00000000e-03
2.00000000e-03
2.00000000e-03
2.00000000e-03
2.00000000e-03
2.00000000e-03
2.00000000e-03
2.00000000e-03
2.00000000e-03
2.00000000e-03
2.00000000e-03
2.00000000e-03
2.00000000e-03
2.00000000e-03
2.00000000e-03
2.00000000e-03
2.00000000e-03
2.00000000e-03
2.00000000e-03
2.00000000e-03
2.00000000e-03
2.00000000e-03
2.00000000e-03
2.00000000e-03
2.00000000e-03
2.00000000e-03
2.00000000e-03
2.00000000e-03
2.00000000e-03
2.00000000e-03
2.00000000e-03
2.00000000e-03
2.00000000e-03
2.00000000e-03
2.00000000e-03
2.00000000e-03
2.00000000e-03
2.00000000e-03
2.00000000e-03
2.00000000e-03
2.00000000e-03
2.00000000e-03
2.00000000e-03
2.00000000e-03
2.00000000e-03
2.00000000e-03
2.00000000e-03
2.00000000e-03
2.00000000e-03
2.00000000e-03
2.00000000e-03
2.00000000e-03
2.00000000e-03
2.00000000e-03
2.00000000e-03
2.00000000e-03
2.00000000e-03
2.00000000e-03
2.00000000e-03
2.00000000e-03
2.00000000e-03
2.00000000e-03
2.00000000e-03
2.00000000e-03
2.00000000e-03
2.00000000e-03
2.00000000e-03
2.00000000e-03
2.00000000e-03
2.00000000e-03
2.00000000e-03
2.00000000e-03
2.00000000e-03
2.00000000e-03
2.00000000e-03
2.00000000e-03
2.00000000e-03
2.00000000e-03
2.00000000e-03
2.00000000e-03
2.00000000e-03
2.00000000e-03
2.00000000e-03
2.00000000e-03
2.00000000e-03
2.00000000e-03
2.00000000e-03
2.00000000e-03
2.00000000e-03
2.00000000e-03
2.00000000e-03
2.00000000e-03
2.00000000e-03
2.00000000e-03
2.00000000e-03
2.00000000e-03
2.00000000e-03
2.00000000e-03
2.00000000e-03
2.00000000e-03
2.00000000e-03
2.00000000e-03
2.00000000e-03
2.00000000e-03
2.00000000e-03
2.00000000e-03
2.00000000e-03
2.00000000e-03
2.00000000e-03
2.00000000e-03
2.00000000e-03
2.00000000e-03
2.00000000e-03
2.00000000e-03
2.00000000e-03
2.00000000e-03
2.00000000e-03
2.00000000e-03
2.00000000e-03
2.00000000e-03
2.00000000e-03
2.00000000e-03
2.00000000e-03
2.00000000e-03
2.00000000e-03
2.00000000e-03
2.00000000e-03
2.00000000e-03
2.00000000e-03
2.00000000e-03
2.00000000e-03
2.00000000e-03
2.00000000e-03
2.00000000e-03
2.00000000e-03
2.00000000e-03
2.00000000e-03
2.00000000e-03
2.00000000e-03
2.00000000e-03
2.00000000e-03
2.00000000e-03
2.00000000e-03
2.00000000e-03
2.00000000e-03
2.00000000e-03
2.00000000e-03
2.00000000e-03
2.00000000e-03
2.00000000e-03
2.00000000e-03
2.00000000e-03
2.00000000e-03
2.00000000e-03
2.00000000e-03
2.00000000e-03
2.00000000e-03
2.00000000e-03
2.00000000e-03
2.00000000e-03
2.00000000e-03
2.00000000e-03
2.00000000e-03
2.00000000e-03
2.00000000e-03
2.00000000e-03
2.00000000e-03
2.00000000e-03
2.00000000e-03
2.00000000e-03
2.00000000e-03
2.00000000e-03
2.00000000e-03
2.00000000e-03
2.00000000e-03
2.00000000e-03
2.00000000e-03
2.00000000e-03
2.00000000e-03
2.00000000e-03
2.00000000e-03
2.00000000e-03
2.00000000e-03
2.00000000e-03
2.00000000e-03
2.00000000e-03
2.00000000e-03
2.00000000e-03
2.00000000e-03
2.00000000e-03
2.00000000e-03
2.00000000e-03
2.00000000e-03
2.00000000e-03
2.00000000e-03
2.00000000e-03
2.00000000e-03
2.00000000e-03
2.00000000e-03
2.00000000e-03
2.00000000e-03
2.00000000e-03
2.00000000e-03
2.00000000e-03
2.00000000e-03
2.00000000e-03
2.00000000e-03
2.00000000e-03
2.00000000e-03
2.00000000e-03
