# vtk DataFile Version 2.0
Particle data
ASCII
DATASET POLYDATA
POINTS 469 double
1.67038000e-02	-3.24171000e-02	1.45264000e-02
1.62244000e-02	-2.40058000e-02	1.34568000e-02
-8.56390000e-03	-3.90466000e-02	1.45522000e-02
3.27466000e-02	-4.06757000e-03	8.25979000e-03
2.10743000e-02	-2.11594000e-02	2.33828000e-03
7.99131000e-03	-3.56904000e-02	2.66557000e-03
5.29996000e-03	-3.96291000e-02	1.81000000e-02
2.90975000e-02	-4.33763000e-04	1.81000000e-02
-1.21205000e-02	-3.05825000e-02	1.80954000e-02
3.71174000e-02	8.00882000e-03	1.80991000e-02
1.98332000e-02	-3.07538000e-02	7.31739000e-03
1.10616000e-02	-2.81315000e-02	1.81000000e-02
1.91076000e-02	3.01988000e-03	1.01760000e-02
1.28909000e-02	-2.03894000e-02	5.98853000e-03
2.19338000e-02	-2.69306000e-02	1.46939000e-02
3.99442000e-02	1.00007000e-03	1.08502000e-02
2.45750000e-02	-3.84731000e-03	6.19589000e-03
9.05595000e-03	-2.37131000e-02	2.12804000e-03
2.70075000e-02	-3.28519000e-03	1.22391000e-02
1.56576000e-02	-3.67652000e-02	4.83476000e-03
2.41489000e-02	-2.75068000e-02	1.99915000e-03
1.26577000e-03	-2.00108000e-02	1.74097000e-02
3.94984000e-02	-5.77003000e-03	1.99969000e-03
-3.69669000e-03	-3.60944000e-02	5.93445000e-03
4.94801000e-03	-2.89112000e-02	5.00123000e-03
3.56129000e-02	6.99346000e-03	9.53379000e-03
3.14736000e-02	-2.46313000e-02	1.48505000e-02
3.31489000e-03	-3.04404000e-02	1.79653000e-02
3.47848000e-02	-1.09433000e-02	1.18410000e-02
2.38165000e-02	-5.59318000e-04	1.49626000e-02
1.35195000e-02	-2.84206000e-02	8.50343000e-03
-1.79896000e-02	-3.56080000e-02	8.62193000e-03
7.39175000e-03	-3.03479000e-02	7.83510000e-03
8.18797000e-03	-1.32030000e-02	1.80999000e-02
3.44447000e-02	1.71218000e-02	1.06267000e-02
1.04493000e-02	-2.20389000e-02	1.17234000e-02
1.57758000e-02	-3.67027000e-02	9.59234000e-03
3.61612000e-02	-1.69177000e-02	9.92267000e-03
1.05879000e-02	-3.02483000e-02	1.38754000e-02
1.72301000e-02	-2.90671000e-02	4.79195000e-03
3.34366000e-02	-1.47086000e-02	1.18421000e-02
2.75787000e-04	-3.31042000e-02	1.62485000e-02
3.59701000e-02	1.74620000e-02	2.83405000e-03
1.85814000e-02	-3.12626000e-02	1.80536000e-02
1.98699000e-02	3.56578000e-04	1.41011000e-02
2.42308000e-02	-2.66719000e-02	1.14297000e-02
2.00709000e-02	-1.90219000e-02	9.42043000e-03
2.89867000e-02	-2.18424000e-02	1.34235000e-02
2.55479000e-02	-6.46628000e-03	1.03030000e-02
2.22964000e-02	-3.31931000e-02	1.81000000e-02
2.94730000e-02	4.58790000e-04	1.99992000e-03
2.18226000e-02	-1.55032000e-02	8.27387000e-03
3.43265000e-02	-2.03496000e-02	1.18539000e-02
2.63807000e-02	-2.75874000e-03	2.12847000e-03
3.58926000e-02	1.72828000e-03	1.18179000e-02
3.34873000e-02	-4.89744000e-03	1.50593000e-02
3.94725000e-02	6.07249000e-03	9.03018000e-03
2.56052000e-02	-2.20115000e-02	1.80723000e-02
2.55705000e-02	9.24577000e-03	1.37031000e-02
2.68325000e-02	5.50185000e-03	1.43271000e-02
2.31310000e-02	9.97843000e-03	1.67871000e-02
1.49830000e-02	-1.21568000e-02	1.32110000e-02
2.16315000e-02	-6.62403000e-03	1.81001000e-02
3.67533000e-02	-4.77920000e-03	8.60834000e-03
1.05065000e-02	-1.62177000e-02	5.82306000e-03
2.34258000e-02	-2.48700000e-02	5.47173000e-03
3.75981000e-02	1.35341000e-02	3.15668000e-03
8.64283000e-03	-2.66871000e-02	1.48306000e-02
3.42236000e-02	8.97689000e-03	5.87937000e-03
1.56152000e-02	2.64236000e-03	6.54977000e-03
3.26799000e-02	-1.44040000e-02	7.92661000e-03
-1.36093000e-03	-1.17996000e-02	2.02446000e-03
1.88723000e-02	-3.52466000e-02	1.78550000e-02
2.00003000e-02	-3.46330000e-02	1.40491000e-02
-1.02398000e-02	-3.86401000e-02	3.33370000e-03
3.04610000e-02	-1.37950000e-02	1.81001000e-02
2.27770000e-02	-7.26641000e-03	5.15918000e-03
1.07290000e-02	-3.85208000e-02	6.33122000e-03
2.02748000e-02	1.24921000e-02	1.80998000e-02
3.99794000e-02	9.46937000e-04	1.80985000e-02
2.82836000e-02	-2.06826000e-02	9.44363000e-03
2.18419000e-02	-8.56637000e-03	8.92184000e-03
1.81690000e-02	-6.48291000e-03	8.72792000e-03
1.35494000e-02	-8.64152000e-03	1.80960000e-02
2.04779000e-02	5.90632000e-03	2.51053000e-03
2.48863000e-02	-3.12919000e-02	3.05866000e-03
1.54205000e-02	-2.17834000e-02	1.80972000e-02
3.98297000e-02	-3.12852000e-03	1.05594000e-02
1.58248000e-02	-2.42000000e-03	5.79604000e-03
3.01174000e-02	8.35447000e-03	3.72564000e-03
2.95817000e-02	-2.68799000e-02	1.05543000e-02
2.12270000e-02	-2.81103000e-02	4.66171000e-03
-1.42220000e-02	-3.68021000e-02	1.05096000e-02
3.13805000e-02	-2.47911000e-02	2.63153000e-03
7.93199000e-03	-2.84113000e-02	1.12923000e-02
-1.82574000e-02	-3.54948000e-02	1.30099000e-02
3.96432000e-02	-4.68069000e-03	5.84547000e-03
3.48728000e-02	9.11214000e-03	1.28695000e-02
2.57197000e-03	-2.38972000e-02	1.67864000e-02
1.09380000e-02	-3.13281000e-02	9.44371000e-03
3.07576000e-02	5.63375000e-03	6.58949000e-03
2.93256000e-02	4.67677000e-03	1.11947000e-02
3.46663000e-02	-1.28042000e-02	1.54930000e-02
9.23630000e-03	-4.32900000e-03	1.80217000e-02
2.75935000e-02	7.79780000e-03	7.73098000e-03
2.67071000e-02	-2.96904000e-02	1.05543000e-02
1.50243000e-02	-1.27181000e-02	9.23069000e-03
2.70274000e-02	-5.05139000e-04	5.87530000e-03
3.48519000e-02	1.08663000e-02	1.99975000e-03
1.70592000e-02	-2.66011000e-02	8.90029000e-03
3.65130000e-02	4.29300000e-03	1.99956000e-03
2.63394000e-02	-2.59433000e-02	1.80446000e-02
2.77067000e-02	-1.66666000e-02	1.76931000e-02
3.33140000e-02	-6.97589000e-04	1.99895000e-03
1.68903000e-02	3.24597000e-03	1.41860000e-02
2.77246000e-02	1.10557000e-02	1.99999000e-03
2.84381000e-02	-2.81023000e-02	1.51214000e-02
3.97274000e-02	4.55682000e-03	5.33765000e-03
1.65056000e-02	-2.19353000e-02	5.23349000e-03
-1.31209000e-03	-3.99593000e-02	2.32397000e-03
2.49303000e-02	-2.21675000e-02	2.00012000e-03
1.57588000e-02	-6.23664000e-03	1.45753000e-02
1.07154000e-02	-3.85024000e-02	1.70579000e-02
2.90953000e-02	1.88560000e-02	6.75385000e-03
-7.63870000e-04	-1.37096000e-02	1.78190000e-02
2.52741000e-02	-3.09828000e-02	1.41449000e-02
5.20399000e-03	-3.74549000e-02	5.14042000e-03
1.01544000e-02	-3.68005000e-02	1.23810000e-02
3.41236000e-02	-6.75754000e-03	1.08803000e-02
2.78149000e-02	-1.58115000e-02	1.99919000e-03
3.21134000e-02	-4.62115000e-03	1.99964000e-03
5.83074000e-03	-7.08618000e-03	8.84276000e-03
2.24770000e-02	-2.49054000e-02	1.81001000e-02
3.19403000e-03	-3.73480000e-02	8.77582000e-03
1.63327000e-02	-1.79617000e-02	5.65477000e-03
2.80397000e-02	1.21946000e-02	1.26046000e-02
9.45725000e-03	-2.69645000e-02	7.30538000e-03
6.71698000e-03	-3.94222000e-02	1.99944000e-03
1.86856000e-02	-3.14876000e-03	1.24968000e-02
2.94184000e-02	-3.53251000e-03	1.54212000e-02
2.44435000e-02	6.43564000e-03	1.81003000e-02
2.21702000e-02	-3.31954000e-02	1.10115000e-02
2.42837000e-02	-1.18946000e-02	1.25759000e-02
3.36726000e-02	-2.15746000e-02	2.00029000e-03
1.01544000e-02	-3.45932000e-02	5.84548000e-03
1.93708000e-02	-3.49685000e-02	2.70760000e-03
3.99474000e-02	-1.79612000e-03	1.99944000e-03
1.45482000e-02	-3.00728000e-02	2.00004000e-03
1.86394000e-02	-1.42726000e-02	1.03581000e-02
3.19055000e-02	6.82765000e-03	1.44366000e-02
2.39699000e-02	-1.80347000e-02	1.80937000e-02
1.83167000e-02	-1.04471000e-02	9.23784000e-03
8.11169000e-03	-3.56903000e-02	9.10381000e-03
2.48779000e-02	-2.18884000e-02	1.19111000e-02
2.79966000e-02	-3.56274000e-03	8.26463000e-03
3.45348000e-02	-1.06709000e-03	1.45801000e-02
4.07168000e-03	-3.52533000e-02	1.99947000e-03
2.05449000e-02	-1.76255000e-02	5.13391000e-03
1.69471000e-02	1.09420000e-02	1.48837000e-02
1.22050000e-02	-2.83074000e-02	4.72748000e-03
-5.68567000e-04	-3.58433000e-02	8.41705000e-03
1.07509000e-02	-3.85113000e-02	2.00585000e-03
2.62329000e-02	1.13019000e-02	6.36379000e-03
3.54051000e-02	-8.85356000e-03	1.81014000e-02
1.88905000e-02	-4.87810000e-03	5.05670000e-03
1.41468000e-02	-2.88571000e-02	1.24945000e-02
2.93794000e-02	-5.80484000e-03	4.97207000e-03
6.67346000e-03	-3.93438000e-02	8.34475000e-03
3.63683000e-02	-4.97362000e-03	1.80110000e-02
3.99448000e-02	-7.12865000e-04	6.25272000e-03
-1.00024000e-03	-3.99527000e-02	1.61751000e-02
3.43434000e-02	1.09495000e-02	9.35645000e-03
3.04373000e-02	-1.95627000e-02	1.81001000e-02
1.47677000e-02	-2.55293000e-02	1.68561000e-02
1.44482000e-02	-3.72876000e-02	1.80996000e-02
-9.07804000e-03	-3.89241000e-02	9.41944000e-03
6.78021000e-03	-1.39933000e-02	2.00358000e-03
1.07505000e-02	-7.01649000e-03	1.48828000e-02
-5.50390000e-03	-3.56816000e-02	1.30913000e-02
-8.07023000e-03	-3.51200000e-02	8.60234000e-03
3.40375000e-02	-1.19956000e-02	5.03630000e-03
2.12860000e-02	3.39980000e-03	6.78701000e-03
2.64993000e-02	-2.99392000e-02	1.80991000e-02
3.81973000e-02	-1.16429000e-02	1.40159000e-02
6.29498000e-03	-2.08602000e-02	1.81015000e-02
2.61132000e-03	-3.28030000e-02	1.18883000e-02
2.33730000e-02	-1.49463000e-02	1.99984000e-03
2.46092000e-03	-2.81707000e-02	1.45943000e-02
1.51728000e-02	-3.33546000e-02	1.81005000e-02
3.73292000e-03	-3.12677000e-02	2.00123000e-03
3.70423000e-02	2.11248000e-03	1.56294000e-02
1.62904000e-02	-1.15147000e-02	1.75843000e-02
3.96594000e-02	-5.14263000e-03	1.45104000e-02
3.43366000e-02	-2.04462000e-02	1.79807000e-02
1.74717000e-02	-1.94532000e-02	2.00784000e-03
3.05629000e-02	-6.10579000e-03	1.25810000e-02
4.64706000e-03	-1.88127000e-02	1.39440000e-02
2.74694000e-02	2.49895000e-05	9.95261000e-03
2.50932000e-02	-1.01872000e-02	6.60713000e-03
3.39043000e-02	1.03903000e-02	1.81013000e-02
2.63958000e-02	-2.47854000e-02	1.42138000e-02
2.60173000e-02	-1.95479000e-02	1.49482000e-02
3.98743000e-02	-3.05105000e-03	1.80981000e-02
5.27372000e-03	-9.94833000e-03	1.16597000e-02
3.55009000e-02	5.24636000e-03	1.36805000e-02
2.84799000e-02	-1.66484000e-02	8.04486000e-03
3.08893000e-02	-1.27015000e-02	1.41814000e-02
3.53824000e-02	-1.65147000e-02	5.86783000e-03
1.17561000e-02	-2.34646000e-02	1.52242000e-02
3.09604000e-02	-9.88722000e-03	1.13413000e-02
3.16166000e-02	1.64101000e-02	1.42798000e-02
2.44473000e-02	5.10335000e-03	1.99987000e-03
3.22630000e-02	1.38200000e-02	1.12080000e-02
2.25408000e-02	3.98479000e-03	1.42329000e-02
1.99628000e-02	-1.76311000e-02	1.53895000e-02
1.38486000e-02	-1.76679000e-02	2.00013000e-03
[...]
POINT_DATA 469
SCALARS Radius double 1
LOOKUP_TABLE default
2.00000000e-03
2.00000000e-03
2.00000000e-03
2.00000000e-03
2.00000000e-03
2.00000000e-03
2.00000000e-03
2.00000000e-03
2.00000000e-03
2.00000000e-03
2.00000000e-03
2.00000000e-03
2.00000000e-03
2.00000000e-03
2.00000000e-03
2.00000000e-03
2.00000000e-03
2.00000000e-03
2.00000000e-03
2.00000000e-03
2.00000000e-03
2.00000000e-03
2.00000000e-03
2.00000000e-03
2.00000000e-03
2.00000000e-03
2.00000000e-03
2.00000000e-03
2.00000000e-03
2.00000000e-03
2.00000000e-03
2.00000000e-03
2.00000000e-03
2.00000000e-03
2.00000000e-03
2.00000000e-03
2.00000000e-03
2.00000000e-03
2.00000000e-03
2.00000000e-03
2.00000000e-03
2.00000000e-03
2.00000000e-03
2.00000000e-03
2.00000000e-03
2.00000000e-03
2.00000000e-03
2.00000000e-03
2.00000000e-03
2.00000000e-03
2.00000000e-03
2.00000000e-03
2.00000000e-03
2.00000000e-03
2.00000000e-03
2.00000000e-03
2.00000000e-03
2.00000000e-03
2.00000000e-03
2.00000000e-03
2.00000000e-03
2.00000000e-03
2.00000000e-03
2.00000000e-03
2.00000000e-03
2.00000000e-03
2.00000000e-03
2.00000000e-03
2.00000000e-03
2.00000000e-03
2.00000000e-03
2.00000000e-03
2.00000000e-03
2.00000000e-03
2.00000000e-03
2.00000000e-03
2.00000000e-03
2.00000000e-03
2.00000000e-03
2.00000000e-03
2.00000000e-03
2.00000000e-03
2.00000000e-03
2.00000000e-03
2.00000000e-03
2.00000000e-03
2.00000000e-03
2.00000000e-03
2.00000000e-03
2.00000000e-03
2.00000000e-03
2.00000000e-03
2.00000000e-03
2.00000000e-03
2.00000000e-03
2.00000000e-03
2.00000000e-03
2.00000000e-03
2.00000000e-03
2.00000000e-03
2.00000000e-03
2.00000000e-03
2.00000000e-03
2.00000000e-03
2.00000000e-03
2.00000000e-03
2.00000000e-03
2.00000000e-03
2.00000000e-03
2.00000000e-03
2.00000000e-03
2.00000000e-03
2.00000000e-03
2.00000000e-03
2.00000000e-03
2.00000000e-03
2.00000000e-03
2.00000000e-03
2.00000000e-03
2.00000000e-03
2.00000000e-03
2.00000000e-03
2.00000000e-03
2.00000000e-03
2.00000000e-03
2.00000000e-03
2.00000000e-03
2.00000000e-03
2.00000000e-03
2.00000000e-03
2.00000000e-03
2.00000000e-03
2.00000000e-03
2.00000000e-03
2.00000000e-03
2.00000000e-03
2.00000000e-03
2.00000000e-03
2.00000000e-03
2.00000000e-03
2.00000000e-03
2.00000000e-03
2.00000000e-03
2.00000000e-03
2.00000000e-03
2.00000000e-03
2.00000000e-03
2.00000000e-03
2.00000000e-03
2.00000000e-03
2.00000000e-03
2.00000000e-03
2.00000000e-03
2.00000000e-03
2.00000000e-03
2.00000000e-03
2.00000000e-03
2.00000000e-03
2.00000000e-03
2.00000000e-03
2.00000000e-03
2.00000000e-03
2.00000000e-03
2.00000000e-03
2.00000000e-03
2.00000000e-03
2.00000000e-03
2.00000000e-03
2.00000000e-03
2.00000000e-03
2.00000000e-03
2.00000000e-03
2.00000000e-03
2.00000000e-03
2.00000000e-03
2.00000000e-03
2.00000000e-03
2.00000000e-03
2.00000000e-03
2.00000000e-03
2.00000000e-03
2.00000000e-03
2.00000000e-03
2.00000000e-03
2.00000000e-03
2.00000000e-03
2.00000000e-03
2.00000000e-03
2.00000000e-03
2.00000000e-03
2.00000000e-03
2.00000000e-03
2.00000000e-03
2.00000000e-03
2.00000000e-03
2.00000000e-03
2.00000000e-03
2.00000000e-03
2.00000000e-03
2.00000000e-03
2.00000000e-03
2.00000000e-03
2.00000000e-03
2.00000000e-03
2.00000000e-03
2.00000000e-03
2.00000000e-03
2.00000000e-03
2.00000000e-03
2.00000000e-03
2.00000000e-03
2.00000000e-03
2.00000000e-03
2.00000000e-03
2.00000000e-03
2.00000000e-03
2.00000000e-03
2.00000000e-03
2.00000000e-03
2.00000000e-03
2.00000000e-03
2.00000000e-03
2.00000000e-03
2.00000000e-03
2.00000000e-03
2.00000000e-03
2.00000000e-03
2.00000000e-03
2.00000000e-03
2.00000000e-03
2.00000000e-03
2.00000000e-03
2.00000000e-03
2.00000000e-03
2.00000000e-03
2.00000000e-03
2.00000000e-03
2.00000000e-03
2.00000000e-03
2.00000000e-03
2.00000000e-03
2.00000000e-03
2.00000000e-03
2.00000000e-03
2.00000000e-03
2.00000000e-03
2.00000000e-03
2.00000000e-03
2.00000000e-03
2.00000000e-03
2.00000000e-03
2.00000000e-03
2.00000000e-03
2.00000000e-03
2.00000000e-03
2.00000000e-03
2.00000000e-03
2.00000000e-03
2.00000000e-03
2.00000000e-03
2.00000000e-03
2.00000000e-03
2.00000000e-03
2.00000000e-03
2.00000000e-03
2.00000000e-03
2.00000000e-03
2.00000000e-03
2.00000000e-03
2.00000000e-03
2.00000000e-03
2.00000000e-03
2.00000000e-03
2.00000000e-03
2.00000000e-03
2.00000000e-03
2.00000000e-03
2.00000000e-03
2.00000000e-03
2.00000000e-03
2.00000000e-03
2.00000000e-03
2.00000000e-03
2.00000000e-03
2.00000000e-03
2.00000000e-03
2.00000000e-03
2.00000000e-03
2.00000000e-03
2.00000000e-03
2.00000000e-03
2.00000000e-03
2.00000000e-03
2.00000000e-03
2.00000000e-03
2.00000000e-03
2.00000000e-03
2.00000000e-03
2.00000000e-03
2.00000000e-03
2.00000000e-03
2.00000000e-03
2.00000000e-03
2.00000000e-03
2.00000000e-03
2.00000000e-03
2.00000000e-03
2.00000000e-03
2.00000000e-03
2.00000000e-03
2.00000000e-03
2.00000000e-03
2.00000000e-03
2.00000000e-03
2.00000000e-03
2.00000000e-03
2.00000000e-03
2.00000000e-03
2.00000000e-03
2.00000000e-03
2.00000000e-03
2.00000000e-03
2.00000000e-03
2.00000000e-03
2.00000000e-03
2.00000000e-03
2.00000000e-03
2.00000000e-03
2.00000000e-03
2.00000000e-03
2.00000000e-03
2.00000000e-03
2.00000000e-03
2.00000000e-03
2.00000000e-03
2.00000000e-03
2.00000000e-03
2.00000000e-03
2.00000000e-03
2.00000000e-03
2.00000000e-03
2.00000000e-03
2.00000000e-03
2.00000000e-03
2.00000000e-03
2.00000000e-03
2.00000000e-03
2.00000000e-03
2.00000000e-03
2.00000000e-03
2.00000000e-03
2.00000000e-03
2.00000000e-03
2.00000000e-03
2.00000000e-03
2.00000000e-03
2.00000000e-03
2.00000000e-03
2.00000000e-03
2.00000000e-03
2.00000000e-03
2.00000000e-03
2.00000000e-03
2.00000000e-03
2.00000000e-03
2.00000000e-03
2.00000000e-03
2.00000000e-03
2.00000000e-03
2.00000000e-03
2.00000000e-03
2.00000000e-03
2.00000000e-03
2.00000000e-03
2.00000000e-03
2.00000000e-03
2.00000000e-03
2.00000000e-03
2.00000000e-03
2.00000000e-03
2.00000000e-03
2.00000000e-03
2.00000000e-03
2.00000000e-03
2.00000000e-03
2.00000000e-03
2.00000000e-03
2.00000000e-03
2.00000000e-03
2.00000000e-03
2.00000000e-03
2.00000000e-03
2.00000000e-03
2.00000000e-03
2.00000000e-03
2.00000000e-03
2.00000000e-03
2.00000000e-03
2.00000000e-03
2.00000000e-03
2.00000000e-03
2.00000000e-03
2.00000000e-03
2.00000000e-03
2.00000000e-03
2.00000000e-03
2.00000000e-03
2.00000000e-03
2.00000000e-03
2.00000000e-03
2.00000000e-03
2.00000000e-03
2.00000000e-03
2.00000000e-03
2.00000000e-03
2.00000000e-03
2.00000000e-03
2.00000000e-03
2.00000000e-03
2.00000000e-03
2.00000000e-03
2.00000000e-03
2.00000000e-03
2.00000000e-03
2.00000000e-03
2.00000000e-03
2.00000000e-03
2.00000000e-03
2.00000000e-03
2.00000000e-03
2.00000000e-03
2.00000000e-03
2.00000000e-03
2.00000000e-03
2.00000000e-03
2.00000000e-03
2.00000000e-03
2.00000000e-03
2.00000000e-03
2.00000000e-03
2.00000000e-03
2.00000000e-03
2.00000000e-03
2.00000000e-03
2.00000000e-03
2.00000000e-03
2.00000000e-03
2.00000000e-03
2.00000000e-03
2.00000000e-03
2.00000000e-03
2.00000000e-03
2.00000000e-03
2.00000000e-03
2.00000000e-03
2.00000000e-03
2.00000000e-03
2.00000000e-03
2.00000000e-03
2.00000000e-03
2.00000000e-03
2.00000000e-03
2.00000000e-03
2.00000000e-03
2.00000000e-03
2.00000000e-03
2.00000000e-03
2.00000000e-03
2.00000000e-03
