# vtk DataFile Version 2.0
Particle data
ASCII
DATASET POLYDATA
POINTS 469 double
1.63863000e-02	9.80475000e-03	8.01074000e-03
2.47624000e-02	1.13245000e-02	1.45148000e-02
2.84121000e-02	3.23370000e-03	5.98132000e-03
1.75482000e-02	-2.89899000e-02	1.04511000e-02
2.03418000e-02	-2.78877000e-03	2.00942000e-03
1.54328000e-02	1.07678000e-02	2.63720000e-03
1.82927000e-02	1.04014000e-02	1.40118000e-02
1.92800000e-02	-2.32731000e-02	1.80999000e-02
3.53711000e-02	9.18523000e-03	1.81002000e-02
2.87268000e-02	-2.50272000e-02	1.81009000e-02
4.47372000e-04	-2.40259000e-02	3.59169000e-03
2.30595000e-02	1.18580000e-02	1.80985000e-02
3.99434000e-02	-6.13712000e-04	1.22732000e-02
2.49302000e-02	2.66427000e-03	3.64939000e-03
8.77274000e-03	-1.55428000e-02	1.34383000e-02
2.58127000e-02	-3.04943000e-02	1.01729000e-02
2.00287000e-02	-1.87483000e-02	5.86792000e-03
3.21445000e-02	1.44855000e-02	2.00031000e-03
1.88253000e-02	-2.17530000e-02	1.36607000e-02
-4.30258000e-03	-2.82767000e-02	7.93653000e-03
-2.88830000e-03	-2.98268000e-02	1.99972000e-03
3.60339000e-02	5.25700000e-03	1.77471000e-02
1.85429000e-02	-3.54266000e-02	2.01801000e-03
2.06078000e-02	-6.77935000e-03	2.00208000e-03
2.41066000e-02	-9.11326000e-04	2.05702000e-03
2.90813000e-02	-2.12384000e-02	8.56283000e-03
-1.80274000e-03	-3.99420000e-02	1.53562000e-02
3.43399000e-02	1.07810000e-02	1.26493000e-02
1.16398000e-02	-3.46928000e-02	1.11861000e-02
2.05332000e-02	-1.85875000e-02	1.54419000e-02
3.08670000e-02	9.52936000e-03	1.01190000e-02
3.40840000e-02	1.79846000e-02	2.02696000e-03
2.95070000e-02	1.54064000e-02	5.10372000e-03
2.89619000e-02	-1.97449000e-03	1.81005000e-02
3.63341000e-02	-1.65512000e-02	1.08832000e-02
3.21451000e-02	5.88529000e-03	1.11577000e-02
1.27595000e-02	8.73727000e-03	5.83158000e-03
6.20060000e-03	-3.94041000e-02	9.55778000e-03
2.28952000e-02	9.50429000e-03	1.11101000e-02
1.58794000e-02	-6.28370000e-03	2.47275000e-03
7.85978000e-03	-3.60148000e-02	1.08827000e-02
3.46012000e-02	1.82777000e-02	1.42222000e-02
3.61794000e-02	-1.70105000e-02	2.48311000e-03
9.60102000e-03	-1.77298000e-02	1.80313000e-02
2.64948000e-02	-1.25634000e-02	1.63162000e-02
-3.44435000e-03	-3.18328000e-02	9.59958000e-03
1.47542000e-02	-1.75169000e-02	1.12691000e-02
7.77211000e-05	-3.66322000e-02	1.41344000e-02
1.37909000e-02	-2.47287000e-02	1.09014000e-02
-5.56426000e-03	-3.00467000e-02	1.80627000e-02
1.99380000e-02	-2.14083000e-02	2.80056000e-03
1.40763000e-02	-2.10134000e-02	9.44899000e-03
2.18049000e-03	-3.98655000e-02	1.13409000e-02
1.77305000e-02	-1.81706000e-02	1.99973000e-03
2.56315000e-02	-2.60897000e-02	1.14939000e-02
1.54860000e-02	-3.10787000e-02	1.52610000e-02
2.86202000e-02	-2.78645000e-02	9.07705000e-03
-1.16042000e-03	-3.08420000e-02	1.67956000e-02
3.42882000e-02	-1.16669000e-02	1.44426000e-02
2.88130000e-02	-1.54571000e-02	1.48156000e-02
3.52744000e-02	-9.44950000e-03	1.80349000e-02
2.90075000e-02	-5.88489000e-03	1.06195000e-02
1.42007000e-02	-1.75570000e-02	1.80557000e-02
1.83004000e-02	-3.26364000e-02	8.99158000e-03
3.28573000e-02	3.54405000e-03	4.70066000e-03
5.82162000e-04	-2.83025000e-02	8.50906000e-03
3.41828000e-02	-2.07607000e-02	3.24491000e-03
2.70136000e-02	1.08669000e-02	1.80996000e-02
3.17017000e-02	-1.94764000e-02	6.10751000e-03
3.97774000e-02	-3.90980000e-03	9.89448000e-03
8.41843000e-03	-3.24054000e-02	6.44241000e-03
3.69004000e-02	5.87026000e-03	2.00039000e-03
-9.37572000e-03	-2.67249000e-02	1.56959000e-02
-1.48506000e-02	-3.70401000e-02	1.22880000e-02
2.94500000e-02	1.93265000e-02	5.89626000e-03
6.87577000e-03	-3.38949000e-02	1.81006000e-02
1.76737000e-02	-2.17298000e-02	7.12341000e-03
1.50131000e-02	6.18799000e-03	1.26189000e-02
3.96118000e-02	-5.43785000e-03	1.81003000e-02
2.46349000e-02	-3.15029000e-02	1.81010000e-02
7.45042000e-04	-3.17668000e-02	1.06683000e-02
2.96684000e-02	-3.48512000e-03	7.48719000e-03
2.90891000e-02	-6.51674000e-03	2.02344000e-03
2.75591000e-02	-8.36855000e-03	1.81004000e-02
3.25052000e-02	-9.96358000e-03	2.35661000e-03
-1.13795000e-02	-3.48627000e-02	2.24701000e-03
2.85678000e-02	1.62312000e-02	1.43636000e-02
2.17215000e-02	-3.35531000e-02	1.09944000e-02
3.62400000e-02	-4.74204000e-03	6.61678000e-03
2.79478000e-02	-1.86687000e-02	4.23745000e-03
-5.78857000e-03	-3.95482000e-02	1.04624000e-02
1.15303000e-02	-7.67253000e-03	6.42829000e-03
3.62567000e-02	6.32233000e-03	6.14932000e-03
-2.78518000e-03	-3.98878000e-02	2.31439000e-03
2.63752000e-02	6.38309000e-03	7.37143000e-03
3.85456000e-02	9.86722000e-03	7.94782000e-03
1.92527000e-02	-3.50324000e-02	5.93478000e-03
3.02331000e-02	-2.03655000e-02	1.22923000e-02
2.49566000e-02	-1.00247000e-03	1.81000000e-02
2.37713000e-02	3.02037000e-03	8.76476000e-03
2.55267000e-02	-1.93049000e-02	7.35851000e-03
2.71140000e-02	-1.82861000e-02	1.08881000e-02
9.57852000e-03	-3.56919000e-02	1.57633000e-02
3.99548000e-02	-1.47543000e-03	1.76755000e-02
2.86919000e-02	-1.65431000e-02	7.54169000e-03
-1.07775000e-02	-3.84914000e-02	8.76763000e-03
2.16686000e-02	-1.38738000e-02	6.67400000e-03
2.34628000e-02	-1.69567000e-02	4.86468000e-03
3.03783000e-02	-2.09444000e-02	2.02308000e-03
1.82767000e-02	-3.68947000e-03	7.01019000e-03
2.57297000e-02	-2.71019000e-02	1.99985000e-03
-4.54326000e-03	-3.39125000e-02	1.81005000e-02
3.99846000e-03	-3.12948000e-02	1.71209000e-02
1.92926000e-02	-2.76517000e-02	1.99814000e-03
3.23896000e-02	-4.70789000e-03	1.42407000e-02
2.98995000e-02	-1.41478000e-02	2.00160000e-03
-7.03700000e-03	-3.93694000e-02	1.56479000e-02
2.80356000e-02	-2.84211000e-02	4.98986000e-03
2.49437000e-02	6.05357000e-03	1.11763000e-02
3.30166000e-02	1.85181000e-02	8.29927000e-03
4.21579000e-03	-2.15154000e-02	1.99925000e-03
2.20257000e-02	-1.42263000e-02	1.36312000e-02
-1.81512000e-02	-3.35889000e-02	1.12651000e-02
3.87562000e-02	-9.86641000e-03	5.72851000e-03
3.97910000e-02	3.93172000e-03	1.81006000e-02
-1.02167000e-02	-3.75987000e-02	1.30823000e-02
2.54354000e-02	2.11025000e-02	7.12527000e-03
2.24241000e-02	1.33305000e-02	9.98650000e-03
1.49964000e-02	-3.23742000e-02	1.12301000e-02
5.73710000e-03	-3.15274000e-02	2.11533000e-03
1.53705000e-02	-2.84427000e-02	2.00169000e-03
3.96741000e-02	4.83505000e-03	4.69403000e-03
4.42711000e-03	-2.34942000e-02	1.80959000e-02
3.21659000e-02	1.55414000e-02	1.26158000e-02
1.56363000e-02	-1.51774000e-02	4.47899000e-03
3.82594000e-02	-1.13239000e-02	1.29033000e-02
2.92417000e-02	8.39042000e-03	4.51078000e-03
1.41703000e-02	7.00042000e-03	2.02597000e-03
2.11744000e-02	-1.65311000e-02	1.04752000e-02
1.62769000e-02	-2.44809000e-02	1.57498000e-02
3.20993000e-02	-8.49216000e-03	1.54986000e-02
-1.07076000e-02	-3.11968000e-02	6.38802000e-03
9.38779000e-03	-2.35002000e-02	1.32174000e-02
1.90909000e-03	-3.99126000e-02	2.43911000e-03
1.46738000e-02	-1.70838000e-04	7.56899000e-03
-4.75336000e-03	-2.70206000e-02	4.15473000e-03
2.19910000e-02	-3.33998000e-02	2.00710000e-03
1.69134000e-02	4.08368000e-03	2.11232000e-03
2.16736000e-02	-8.63288000e-03	9.53767000e-03
2.68348000e-02	-1.96077000e-02	1.47834000e-02
1.13601000e-02	-1.84588000e-02	1.43505000e-02
2.58587000e-02	-1.16784000e-02	8.71342000e-03
2.47084000e-02	2.22112000e-02	1.17330000e-02
-2.50666000e-03	-3.38159000e-02	1.29522000e-02
1.74169000e-02	-2.53959000e-02	8.70151000e-03
2.05053000e-02	-2.86035000e-02	1.41918000e-02
2.61319000e-02	2.00867000e-02	3.28971000e-03
2.07763000e-02	-6.65806000e-03	6.03632000e-03
3.97473000e-02	-4.01756000e-03	1.43638000e-02
1.96887000e-02	1.15717000e-03	2.01943000e-03
3.46437000e-02	9.96899000e-03	7.00024000e-03
2.05246000e-02	1.74676000e-02	2.00098000e-03
3.70510000e-02	-8.29473000e-03	9.17963000e-03
1.25470000e-02	-3.43782000e-02	1.81002000e-02
2.46988000e-02	-4.86661000e-03	1.99998000e-03
2.04422000e-02	4.28537000e-03	1.33275000e-02
1.52369000e-02	-2.67384000e-02	5.62544000e-03
-3.36442000e-03	-2.37300000e-02	2.25805000e-03
1.74064000e-02	-3.31404000e-02	1.81003000e-02
2.26220000e-02	-3.28760000e-02	5.92201000e-03
2.02714000e-02	1.81062000e-02	1.14070000e-02
3.16537000e-02	-1.73317000e-02	1.01107000e-02
1.93069000e-03	-3.45771000e-02	1.80970000e-02
2.12250000e-02	1.33026000e-02	1.47032000e-02
7.09939000e-04	-2.20917000e-02	8.10442000e-03
2.45886000e-02	1.75655000e-02	1.21983000e-02
3.68032000e-02	1.50198000e-02	2.00019000e-03
3.61032000e-02	5.44232000e-04	1.81002000e-02
2.87135000e-02	1.96763000e-02	1.80098000e-02
2.59711000e-02	-6.20551000e-03	7.69907000e-03
1.12886000e-02	-3.48411000e-02	5.09017000e-03
3.20102000e-02	-5.80510000e-03	5.18929000e-03
-2.67023000e-03	-2.71162000e-02	1.14162000e-02
1.20836000e-02	-3.81233000e-02	1.38112000e-02
2.95547000e-02	-2.01488000e-03	1.14678000e-02
2.84339000e-02	2.22110000e-02	1.00062000e-02
7.96839000e-03	-1.99055000e-02	2.84271000e-03
3.69644000e-02	1.47370000e-02	1.45384000e-02
8.86299000e-03	-1.37781000e-02	1.80867000e-02
3.09948000e-02	2.14949000e-02	2.23758000e-03
2.42186000e-02	-2.83640000e-02	1.56581000e-02
2.81125000e-02	-4.88418000e-03	1.44002000e-02
1.86516000e-02	-3.53463000e-02	1.50051000e-02
2.19000000e-03	-3.99097000e-02	1.79616000e-02
2.36685000e-02	-1.77481000e-04	6.36428000e-03
1.49905000e-02	-2.75244000e-02	1.34971000e-02
3.35387000e-02	1.05509000e-04	1.09179000e-02
2.22672000e-02	-2.05644000e-02	9.30629000e-03
1.17239000e-02	-2.53676000e-02	7.00707000e-03
2.91902000e-02	-2.10551000e-02	1.80949000e-02
-4.10803000e-03	-3.66778000e-02	1.52461000e-02
1.49364000e-03	-3.29055000e-02	1.44510000e-02
2.13641000e-02	-3.38052000e-02	1.80994000e-02
3.97619000e-02	3.29015000e-03	1.14232000e-02
2.85545000e-02	-2.32109000e-02	1.45433000e-02
3.91453000e-03	-3.22226000e-02	8.23100000e-03
8.69264000e-03	-3.28138000e-02	1.31312000e-02
7.17569000e-03	-3.61694000e-02	5.90446000e-03
3.12162000e-02	8.20440000e-03	1.42811000e-02
1.13471000e-02	-3.04698000e-02	1.12723000e-02
3.70925000e-02	-1.48013000e-02	1.44985000e-02
2.60783000e-02	-1.59316000e-02	1.99946000e-03
3.33986000e-02	-1.60038000e-02	1.35442000e-02
3.03618000e-02	-1.19337000e-02	1.37279000e-02
3.07296000e-02	1.21738000e-02	1.42262000e-02
2.86920000e-02	2.30298000e-03	2.01093000e-03
[...]
POINT_DATA 469
SCALARS Radius double 1
LOOKUP_TABLE default
2.00000000e-03
2.00000000e-03
2.00000000e-03
2.00000000e-03
2.00000000e-03
2.00000000e-03
2.00000000e-03
2.00000000e-03
2.00000000e-03
2.00000000e-03
2.00000000e-03
2.00000000e-03
2.00000000e-03
2.00000000e-03
2.00000000e-03
2.00000000e-03
2.00000000e-03
2.00000000e-03
2.00000000e-03
2.00000000e-03
2.00000000e-03
2.00000000e-03
2.00000000e-03
2.00000000e-03
2.00000000e-03
2.00000000e-03
2.00000000e-03
2.00000000e-03
2.00000000e-03
2.00000000e-03
2.00000000e-03
2.00000000e-03
2.00000000e-03
2.00000000e-03
2.00000000e-03
2.00000000e-03
2.00000000e-03
2.00000000e-03
2.00000000e-03
2.00000000e-03
2.00000000e-03
2.00000000e-03
2.00000000e-03
2.00000000e-03
2.00000000e-03
2.00000000e-03
2.00000000e-03
2.00000000e-03
2.00000000e-03
2.00000000e-03
2.00000000e-03
2.00000000e-03
2.00000000e-03
2.00000000e-03
2.00000000e-03
2.00000000e-03
2.00000000e-03
2.00000000e-03
2.00000000e-03
2.00000000e-03
2.00000000e-03
2.00000000e-03
2.00000000e-03
2.00000000e-03
2.00000000e-03
2.00000000e-03
2.00000000e-03
2.00000000e-03
2.00000000e-03
2.00000000e-03
2.00000000e-03
2.00000000e-03
2.00000000e-03
2.00000000e-03
2.00000000e-03
2.00000000e-03
2.00000000e-03
2.00000000e-03
2.00000000e-03
2.00000000e-03
2.00000000e-03
2.00000000e-03
2.00000000e-03
2.00000000e-03
2.00000000e-03
2.00000000e-03
2.00000000e-03
2.00000000e-03
2.00000000e-03
2.00000000e-03
2.00000000e-03
2.00000000e-03
2.00000000e-03
2.00000000e-03
2.00000000e-03
2.00000000e-03
2.00000000e-03
2.00000000e-03
2.00000000e-03
2.00000000e-03
2.00000000e-03
2.00000000e-03
2.00000000e-03
2.00000000e-03
2.00000000e-03
2.00000000e-03
2.00000000e-03
2.00000000e-03
2.00000000e-03
2.00000000e-03
2.00000000e-03
2.00000000e-03
2.00000000e-03
2.00000000e-03
2.00000000e-03
2.00000000e-03
2.00000000e-03
2.00000000e-03
2.00000000e-03
2.00000000e-03
2.00000000e-03
2.00000000e-03
2.00000000e-03
2.00000000e-03
2.00000000e-03
2.00000000e-03
2.00000000e-03
2.00000000e-03
2.00000000e-03
2.00000000e-03
2.00000000e-03
2.00000000e-03
2.00000000e-03
2.00000000e-03
2.00000000e-03
2.00000000e-03
2.00000000e-03
2.00000000e-03
2.00000000e-03
2.00000000e-03
2.00000000e-03
2.00000000e-03
2.00000000e-03
2.00000000e-03
2.00000000e-03
2.00000000e-03
2.00000000e-03
2.00000000e-03
2.00000000e-03
2.00000000e-03
2.00000000e-03
2.00000000e-03
2.00000000e-03
2.00000000e-03
2.00000000e-03
2.00000000e-03
2.00000000e-03
2.00000000e-03
2.00000000e-03
2.00000000e-03
2.00000000e-03
2.00000000e-03
2.00000000e-03
2.00000000e-03
2.00000000e-03
2.00000000e-03
2.00000000e-03
2.00000000e-03
2.00000000e-03
2.00000000e-03
2.00000000e-03
2.00000000e-03
2.00000000e-03
2.00000000e-03
2.00000000e-03
2.00000000e-03
2.00000000e-03
2.00000000e-03
2.00000000e-03
2.00000000e-03
2.00000000e-03
2.00000000e-03
2.00000000e-03
2.00000000e-03
2.00000000e-03
2.00000000e-03
2.00000000e-03
2.00000000e-03
2.00000000e-03
2.00000000e-03
2.00000000e-03
2.00000000e-03
2.00000000e-03
2.00000000e-03
2.00000000e-03
2.00000000e-03
2.00000000e-03
2.00000000e-03
2.00000000e-03
2.00000000e-03
2.00000000e-03
2.00000000e-03
2.00000000e-03
2.00000000e-03
2.00000000e-03
2.00000000e-03
2.00000000e-03
2.00000000e-03
2.00000000e-03
2.00000000e-03
2.00000000e-03
2.00000000e-03
2.00000000e-03
2.00000000e-03
2.00000000e-03
2.00000000e-03
2.00000000e-03
2.00000000e-03
2.00000000e-03
2.00000000e-03
2.00000000e-03
2.00000000e-03
2.00000000e-03
2.00000000e-03
2.00000000e-03
2.00000000e-03
2.00000000e-03
2.00000000e-03
2.00000000e-03
2.00000000e-03
2.00000000e-03
2.00000000e-03
2.00000000e-03
2.00000000e-03
2.00000000e-03
2.00000000e-03
2.00000000e-03
2.00000000e-03
2.00000000e-03
2.00000000e-03
2.00000000e-03
2.00000000e-03
2.00000000e-03
2.00000000e-03
2.00000000e-03
2.00000000e-03
2.00000000e-03
2.00000000e-03
2.00000000e-03
2.00000000e-03
2.00000000e-03
2.00000000e-03
2.00000000e-03
2.00000000e-03
2.00000000e-03
2.00000000e-03
2.00000000e-03
2.00000000e-03
2.00000000e-03
2.00000000e-03
2.00000000e-03
2.00000000e-03
2.00000000e-03
2.00000000e-03
2.00000000e-03
2.00000000e-03
2.00000000e-03
2.00000000e-03
2.00000000e-03
2.00000000e-03
2.00000000e-03
2.00000000e-03
2.00000000e-03
2.00000000e-03
2.00000000e-03
2.00000000e-03
2.00000000e-03
2.00000000e-03
2.00000000e-03
2.00000000e-03
2.00000000e-03
2.00000000e-03
2.00000000e-03
2.00000000e-03
2.00000000e-03
2.00000000e-03
2.00000000e-03
2.00000000e-03
2.00000000e-03
2.00000000e-03
2.00000000e-03
2.00000000e-03
2.00000000e-03
2.00000000e-03
2.00000000e-03
2.00000000e-03
2.00000000e-03
2.00000000e-03
2.00000000e-03
2.00000000e-03
2.00000000e-03
2.00000000e-03
2.00000000e-03
2.00000000e-03
2.00000000e-03
2.00000000e-03
2.00000000e-03
2.00000000e-03
2.00000000e-03
2.00000000e-03
2.00000000e-03
2.00000000e-03
2.00000000e-03
2.00000000e-03
2.00000000e-03
2.00000000e-03
2.00000000e-03
2.00000000e-03
2.00000000e-03
2.00000000e-03
2.00000000e-03
2.00000000e-03
2.00000000e-03
2.00000000e-03
2.00000000e-03
2.00000000e-03
2.00000000e-03
2.00000000e-03
2.00000000e-03
2.00000000e-03
2.00000000e-03
2.00000000e-03
2.00000000e-03
2.00000000e-03
2.00000000e-03
2.00000000e-03
2.00000000e-03
2.00000000e-03
2.00000000e-03
2.00000000e-03
2.00000000e-03
2.00000000e-03
2.00000000e-03
2.00000000e-03
2.00000000e-03
2.00000000e-03
2.00000000e-03
2.00000000e-03
2.00000000e-03
2.00000000e-03
2.00000000e-03
2.00000000e-03
2.00000000e-03
2.00000000e-03
2.00000000e-03
2.00000000e-03
2.00000000e-03
2.00000000e-03
2.00000000e-03
2.00000000e-03
2.00000000e-03
2.00000000e-03
2.00000000e-03
2.00000000e-03
2.00000000e-03
2.00000000e-03
2.00000000e-03
2.00000000e-03
2.00000000e-03
2.00000000e-03
2.00000000e-03
2.00000000e-03
2.00000000e-03
2.00000000e-03
2.00000000e-03
2.00000000e-03
2.00000000e-03
2.00000000e-03
2.00000000e-03
2.00000000e-03
2.00000000e-03
2.00000000e-03
2.00000000e-03
2.00000000e-03
2.00000000e-03
2.00000000e-03
2.00000000e-03
2.00000000e-03
2.00000000e-03
2.00000000e-03
2.00000000e-03
2.00000000e-03
2.00000000e-03
2.00000000e-03
2.00000000e-03
2.00000000e-03
2.00000000e-03
2.00000000e-03
2.00000000e-03
2.00000000e-03
2.00000000e-03
2.00000000e-03
2.00000000e-03
2.00000000e-03
2.00000000e-03
2.00000000e-03
2.00000000e-03
2.00000000e-03
2.00000000e-03
2.00000000e-03
2.00000000e-03
2.00000000e-03
2.00000000e-03
2.00000000e-03
2.00000000e-03
2.00000000e-03
2.00000000e-03
2.00000000e-03
2.00000000e-03
2.00000000e-03
2.00000000e-03
2.00000000e-03
2.00000000e-03
2.00000000e-03
2.00000000e-03
2.00000000e-03
2.00000000e-03
2.00000000e-03
2.00000000e-03
2.00000000e-03
2.00000000e-03
2.00000000e-03
2.00000000e-03
2.00000000e-03
2.00000000e-03
2.00000000e-03
2.00000000e-03
2.00000000e-03
2.00000000e-03
2.00000000e-03
2.00000000e-03
2.00000000e-03
2.00000000e-03
2.00000000e-03
2.00000000e-03
2.00000000e-03
2.00000000e-03
2.00000000e-03
2.00000000e-03
2.00000000e-03
2.00000000e-03
2.00000000e-03
2.00000000e-03
2.00000000e-03
2.00000000e-03
2.00000000e-03
2.00000000e-03
2.00000000e-03
2.00000000e-03
2.00000000e-03
2.00000000e-03
2.00000000e-03
2.00000000e-03
2.00000000e-03
2.00000000e-03
2.00000000e-03
2.00000000e-03
2.00000000e-03
2.00000000e-03
