# vtk DataFile Version 2.0
Particle data
ASCII
DATASET POLYDATA
POINTS 469 double
3.49517000e-02	-9.25630000e-03	1.42911000e-02
2.73986000e-02	-6.07845000e-03	1.30218000e-02
2.29785000e-02	-3.27191000e-02	1.43336000e-02
2.02831000e-02	8.39992000e-03	7.23054000e-03
2.90491000e-02	8.74367000e-04	2.65228000e-03
3.14062000e-02	-1.83337000e-02	2.01286000e-03
3.26237000e-02	-2.31277000e-02	1.79712000e-02
4.08677000e-03	-2.23018000e-02	1.80875000e-02
1.04271000e-02	-3.85921000e-02	1.71292000e-02
3.75715000e-03	-1.69981000e-02	1.32500000e-02
3.58246000e-02	-5.44992000e-03	7.50193000e-03
2.75612000e-02	-1.26170000e-02	1.80994000e-02
-4.11500000e-03	-3.97562000e-02	7.28940000e-03
2.46956000e-02	-8.49362000e-03	4.20414000e-03
3.36524000e-02	-2.38582000e-03	1.38630000e-02
1.71569000e-02	1.06740000e-02	8.79535000e-03
1.61910000e-02	-1.60171000e-02	7.57831000e-03
2.71920000e-02	-1.87437000e-02	2.46853000e-03
1.71879000e-02	-1.06823000e-02	1.47886000e-02
3.80466000e-02	-1.21191000e-02	4.90165000e-03
3.64635000e-02	-2.25815000e-04	1.99890000e-03
1.51067000e-02	-3.32005000e-02	1.80788000e-02
2.86309000e-02	2.17179000e-02	2.27888000e-03
2.35083000e-02	-3.01990000e-02	5.12367000e-03
2.77128000e-02	-2.25167000e-02	5.53315000e-03
-1.23856000e-02	-3.02872000e-02	1.80118000e-02
3.92082000e-02	6.20057000e-03	1.44634000e-02
2.48394000e-02	-2.49941000e-02	1.81000000e-02
2.89237000e-02	1.52440000e-02	1.17312000e-02
3.08709000e-04	-3.22211000e-02	1.80974000e-02
2.91771000e-02	-1.08913000e-02	8.88045000e-03
1.11679000e-02	-3.83330000e-02	9.24446000e-03
2.62535000e-02	-1.51556000e-02	7.95029000e-03
1.76260000e-02	-2.46844000e-02	1.51617000e-02
-4.06870000e-03	-3.57534000e-02	7.15213000e-03
2.05813000e-02	-2.05659000e-02	1.44273000e-02
3.78965000e-02	-1.25125000e-02	9.39337000e-03
3.67935000e-02	1.49310000e-02	1.08123000e-02
2.94428000e-02	-1.51966000e-02	1.42090000e-02
3.27245000e-02	-6.46048000e-03	4.97044000e-03
3.28559000e-02	1.41490000e-02	1.23452000e-02
2.32815000e-02	-2.77639000e-02	1.56714000e-02
-5.61495000e-04	-2.76898000e-02	4.15768000e-03
3.59814000e-02	-6.62568000e-03	1.78354000e-02
1.62339000e-02	-2.09422000e-02	1.49290000e-02
3.56890000e-02	4.10739000e-04	1.16399000e-02
2.32339000e-02	-8.66777000e-03	1.28830000e-02
3.51351000e-02	7.28859000e-03	1.33222000e-02
1.92278000e-02	-8.75321000e-03	1.19383000e-02
3.96610000e-02	-5.06257000e-03	1.79634000e-02
1.74246000e-02	-4.94869000e-03	2.02201000e-03
2.48890000e-02	1.06351000e-03	9.52439000e-03
3.82902000e-02	1.11156000e-02	1.27627000e-02
1.24811000e-02	-1.82022000e-02	1.99962000e-03
6.72801000e-03	-1.63829000e-02	6.92551000e-03
1.78742000e-02	5.94318000e-03	1.52287000e-02
1.00672000e-02	-1.17848000e-02	8.20934000e-03
3.31730000e-02	4.95865000e-03	1.81004000e-02
6.30642000e-03	-3.03467000e-02	1.45753000e-02
1.41596000e-03	-3.02744000e-02	1.45520000e-02
6.06259000e-03	-3.37191000e-02	1.24390000e-02
1.90939000e-02	-2.36881000e-02	1.15675000e-02
1.47453000e-02	-1.52446000e-02	1.79231000e-02
2.45443000e-02	1.67024000e-02	9.06738000e-03
2.23571000e-02	-2.41450000e-02	3.72244000e-03
3.37652000e-02	9.46938000e-04	5.45064000e-03
-3.88743000e-03	-2.48500000e-02	6.23434000e-03
2.66752000e-02	-1.76979000e-02	1.56613000e-02
-4.23078000e-04	-3.00751000e-02	7.76412000e-03
3.41194000e-03	-3.59171000e-02	1.99984000e-03
3.20736000e-02	1.38197000e-02	8.35102000e-03
1.01775000e-02	-3.74480000e-02	5.47204000e-03
3.88623000e-02	-9.43893000e-03	1.77833000e-02
3.90608000e-02	-8.27128000e-03	1.39627000e-02
2.22280000e-02	-3.32509000e-02	2.87979000e-03
2.98499000e-02	1.25728000e-02	1.79860000e-02
3.05419000e-03	-3.59684000e-02	5.98318000e-03
3.59040000e-02	-1.74300000e-02	6.25028000e-03
-5.05888000e-03	-3.96592000e-02	1.76895000e-02
1.91625000e-02	1.74970000e-02	1.70556000e-02
3.38311000e-02	7.06452000e-03	9.54322000e-03
2.12393000e-02	-1.06883000e-02	9.07434000e-03
1.01275000e-02	-2.57282000e-02	7.60304000e-03
1.48961000e-02	-2.35560000e-02	1.78583000e-02
8.59983000e-03	-3.42566000e-02	3.64917000e-03
3.98840000e-02	-2.89540000e-03	2.00023000e-03
2.45503000e-02	-5.99753000e-03	1.79975000e-02
2.76013000e-02	1.89175000e-02	1.08710000e-02
1.89452000e-02	-2.60020000e-02	6.08780000e-03
5.56433000e-03	-2.53013000e-02	5.40660000e-03
3.96107000e-02	4.37106000e-03	1.06906000e-02
3.49275000e-02	-2.79424000e-03	4.65128000e-03
1.74472000e-02	-3.59208000e-02	9.31842000e-03
3.93587000e-02	7.01501000e-03	2.55599000e-03
2.41252000e-02	-1.74448000e-02	1.14751000e-02
6.59130000e-03	-3.94408000e-02	1.78781000e-02
3.05738000e-02	2.29925000e-02	7.07019000e-03
-5.62033000e-03	-3.31760000e-02	1.40737000e-02
1.78391000e-02	-2.80867000e-02	1.04640000e-02
3.03711000e-02	-1.45622000e-02	9.92737000e-03
-1.93840000e-03	-3.33337000e-02	9.52122000e-03
1.54087000e-02	-9.27052000e-03	1.81004000e-02
3.19711000e-02	1.63849000e-02	1.55416000e-02
1.00739000e-02	-3.22470000e-02	1.51545000e-02
-2.28556000e-04	-3.58799000e-02	1.65735000e-02
3.98783000e-02	3.84072000e-04	1.08483000e-02
1.92989000e-02	-1.84006000e-02	6.76715000e-03
2.79193000e-03	-3.46333000e-02	9.74399000e-03
4.47792000e-03	-1.56187000e-02	2.82971000e-03
3.12976000e-02	-6.72789000e-03	8.74492000e-03
1.03075000e-02	-6.13475000e-03	5.80202000e-03
3.64731000e-02	2.69199000e-03	1.81007000e-02
3.04994000e-02	8.62764000e-03	1.81007000e-02
1.63680000e-02	-1.99599000e-03	4.52308000e-03
3.02969000e-03	-3.76337000e-02	1.80917000e-02
-5.18641000e-03	-3.40597000e-02	2.06438000e-03
3.97174000e-02	2.23394000e-03	1.43898000e-02
1.22826000e-02	1.07882000e-02	7.58042000e-03
2.48528000e-02	-5.29421000e-03	6.59931000e-03
2.91007000e-02	-2.74297000e-02	2.10387000e-03
3.30897000e-02	2.91448000e-03	2.03481000e-03
1.41290000e-02	-3.02815000e-02	1.23459000e-02
3.62490000e-02	-1.68608000e-02	1.71736000e-02
-1.91708000e-03	-3.63663000e-02	2.13185000e-03
1.47179000e-02	-3.71811000e-02	1.81003000e-02
3.97715000e-02	-3.30667000e-03	1.41029000e-02
3.14456000e-02	-2.04786000e-02	5.38927000e-03
3.41193000e-02	-1.66460000e-02	1.21735000e-02
2.05743000e-02	1.08529000e-02	1.17136000e-02
2.95090000e-02	9.38372000e-03	1.99921000e-03
2.18184000e-02	1.24394000e-02	2.05670000e-03
4.77612000e-03	-3.96640000e-02	9.71427000e-03
3.25612000e-02	-1.74821000e-03	1.81001000e-02
3.06917000e-02	-2.32969000e-02	8.12497000e-03
2.20802000e-02	-1.37038000e-02	6.58643000e-03
-2.98022000e-03	-3.69433000e-02	1.13558000e-02
2.53772000e-02	-1.14100000e-02	6.85439000e-03
3.35930000e-02	-2.16828000e-02	2.02730000e-03
9.75648000e-03	-3.63873000e-02	1.29359000e-02
1.94039000e-02	-1.38002000e-02	1.79801000e-02
-3.92540000e-03	-3.58455000e-02	1.81001000e-02
3.94589000e-02	-5.96407000e-03	1.07192000e-02
2.21173000e-02	-1.51355000e-03	1.41505000e-02
3.82589000e-02	1.08198000e-02	1.99980000e-03
3.22825000e-02	-1.58252000e-02	5.69463000e-03
3.91051000e-02	-8.33139000e-03	2.71420000e-03
2.43904000e-02	1.96489000e-02	2.00135000e-03
3.17858000e-02	-9.16740000e-03	1.99986000e-03
1.99648000e-02	-1.43694000e-02	9.97974000e-03
-9.43226000e-03	-3.37308000e-02	1.62294000e-02
2.99803000e-02	2.55615000e-03	1.79199000e-02
1.50928000e-02	-2.40127000e-02	9.16007000e-03
3.10330000e-02	-1.84610000e-02	9.32840000e-03
3.24076000e-02	4.08835000e-03	1.18055000e-02
1.68553000e-02	-8.32285000e-03	6.25169000e-03
7.89244000e-03	-5.12493000e-03	1.04363000e-02
2.95994000e-02	-2.19022000e-02	1.99879000e-03
2.51584000e-02	4.81363000e-04	5.57616000e-03
-2.02870000e-04	-3.99888000e-02	1.81003000e-02
2.92756000e-02	-1.01721000e-02	4.94748000e-03
2.60056000e-02	-2.60695000e-02	9.17352000e-03
3.55936000e-02	-1.82195000e-02	2.05719000e-03
7.97304000e-03	-2.90814000e-02	7.26950000e-03
3.01754000e-02	1.88806000e-02	1.81001000e-02
1.26026000e-02	-2.28997000e-02	6.23546000e-03
2.93121000e-02	-9.64970000e-03	1.26841000e-02
1.23238000e-02	-1.45771000e-02	5.82997000e-03
3.39739000e-02	-2.10320000e-02	8.46863000e-03
2.28701000e-02	1.61399000e-02	1.78050000e-02
2.29399000e-02	1.75081000e-02	5.39988000e-03
2.88819000e-02	-2.76539000e-02	1.63014000e-02
-1.65987000e-02	-3.63745000e-02	2.42067000e-03
3.43950000e-02	9.53251000e-03	1.80759000e-02
2.76444000e-02	-8.47144000e-03	1.62162000e-02
3.77212000e-02	-1.32595000e-02	1.81003000e-02
2.09586000e-02	-3.40199000e-02	9.55681000e-03
1.88342000e-02	-2.22305000e-02	1.99990000e-03
7.23748000e-03	-3.65153000e-02	9.83195000e-03
1.89843000e-02	-3.29123000e-02	1.51045000e-02
1.65050000e-02	-3.41787000e-02	5.84318000e-03
3.03052000e-02	1.58675000e-02	5.40519000e-03
2.24066000e-02	-2.07172000e-02	5.78164000e-03
3.99792000e-02	7.68160000e-04	1.81010000e-02
3.42855000e-02	1.95295000e-02	1.46736000e-02
2.13442000e-02	-2.20050000e-02	1.80998000e-02
2.71394000e-02	-2.22844000e-02	9.79119000e-03
2.54788000e-02	2.75701000e-03	2.00117000e-03
2.30942000e-02	-2.72177000e-02	1.16632000e-02
3.48672000e-02	-1.04577000e-02	1.81023000e-02
2.60350000e-02	-2.43271000e-02	1.99995000e-03
1.19038000e-02	-4.05834000e-03	1.06350000e-02
1.44923000e-02	-1.92337000e-02	1.80999000e-02
3.08056000e-02	2.18743000e-02	1.50572000e-02
3.86063000e-02	1.03566000e-02	1.79724000e-02
2.57131000e-02	-1.23566000e-03	2.00636000e-03
1.60172000e-02	-6.57077000e-03	1.29253000e-02
1.71109000e-02	-2.85753000e-02	1.43936000e-02
1.63672000e-02	-2.03936000e-02	1.02869000e-02
2.10268000e-02	-6.71438000e-03	8.59549000e-03
-1.95859000e-03	-2.75012000e-02	1.47700000e-02
3.56664000e-02	3.43609000e-03	1.42550000e-02
3.13675000e-02	6.45152000e-03	1.48593000e-02
2.60280000e-02	1.93453000e-02	1.80907000e-02
1.37017000e-02	-3.37251000e-02	1.43322000e-02
-2.41782000e-03	-2.53241000e-02	1.80969000e-02
2.96481000e-02	7.02992000e-03	8.07109000e-03
2.73743000e-02	1.27085000e-02	1.44051000e-02
3.53671000e-02	1.14704000e-02	5.57087000e-03
2.56961000e-02	-1.15936000e-02	1.46502000e-02
2.38671000e-02	8.47178000e-03	1.21385000e-02
-1.08360000e-03	-3.32735000e-02	1.34290000e-02
9.00058000e-03	-2.02008000e-02	2.25610000e-03
-7.43061000e-03	-3.70883000e-02	1.46737000e-02
1.32784000e-02	-3.01330000e-02	1.62775000e-02
2.02102000e-02	-5.86748000e-03	1.46426000e-02
2.17287000e-02	-1.48700000e-02	2.77802000e-03
[...]
POINT_DATA 469
SCALARS Radius double 1
LOOKUP_TABLE default
2.00000000e-03
2.00000000e-03
2.00000000e-03
2.00000000e-03
2.00000000e-03
2.00000000e-03
2.00000000e-03
2.00000000e-03
2.00000000e-03
2.00000000e-03
2.00000000e-03
2.00000000e-03
2.00000000e-03
2.00000000e-03
2.00000000e-03
2.00000000e-03
2.00000000e-03
2.00000000e-03
2.00000000e-03
2.00000000e-03
2.00000000e-03
2.00000000e-03
2.00000000e-03
2.00000000e-03
2.00000000e-03
2.00000000e-03
2.00000000e-03
2.00000000e-03
2.00000000e-03
2.00000000e-03
2.00000000e-03
2.00000000e-03
2.00000000e-03
2.00000000e-03
2.00000000e-03
2.00000000e-03
2.00000000e-03
2.00000000e-03
2.00000000e-03
2.00000000e-03
2.00000000e-03
2.00000000e-03
2.00000000e-03
2.00000000e-03
2.00000000e-03
2.00000000e-03
2.00000000e-03
2.00000000e-03
2.00000000e-03
2.00000000e-03
2.00000000e-03
2.00000000e-03
2.00000000e-03
2.00000000e-03
2.00000000e-03
2.00000000e-03
2.00000000e-03
2.00000000e-03
2.00000000e-03
2.00000000e-03
2.00000000e-03
2.00000000e-03
2.00000000e-03
2.00000000e-03
2.00000000e-03
2.00000000e-03
2.00000000e-03
2.00000000e-03
2.00000000e-03
2.00000000e-03
2.00000000e-03
2.00000000e-03
2.00000000e-03
2.00000000e-03
2.00000000e-03
2.00000000e-03
2.00000000e-03
2.00000000e-03
2.00000000e-03
2.00000000e-03
2.00000000e-03
2.00000000e-03
2.00000000e-03
2.00000000e-03
2.00000000e-03
2.00000000e-03
2.00000000e-03
2.00000000e-03
2.00000000e-03
2.00000000e-03
2.00000000e-03
2.00000000e-03
2.00000000e-03
2.00000000e-03
2.00000000e-03
2.00000000e-03
2.00000000e-03
2.00000000e-03
2.00000000e-03
2.00000000e-03
2.00000000e-03
2.00000000e-03
2.00000000e-03
2.00000000e-03
2.00000000e-03
2.00000000e-03
2.00000000e-03
2.00000000e-03
2.00000000e-03
2.00000000e-03
2.00000000e-03
2.00000000e-03
2.00000000e-03
2.00000000e-03
2.00000000e-03
2.00000000e-03
2.00000000e-03
2.00000000e-03
2.00000000e-03
2.00000000e-03
2.00000000e-03
2.00000000e-03
2.00000000e-03
2.00000000e-03
2.00000000e-03
2.00000000e-03
2.00000000e-03
2.00000000e-03
2.00000000e-03
2.00000000e-03
2.00000000e-03
2.00000000e-03
2.00000000e-03
2.00000000e-03
2.00000000e-03
2.00000000e-03
2.00000000e-03
2.00000000e-03
2.00000000e-03
2.00000000e-03
2.00000000e-03
2.00000000e-03
2.00000000e-03
2.00000000e-03
2.00000000e-03
2.00000000e-03
2.00000000e-03
2.00000000e-03
2.00000000e-03
2.00000000e-03
2.00000000e-03
2.00000000e-03
2.00000000e-03
2.00000000e-03
2.00000000e-03
2.00000000e-03
2.00000000e-03
2.00000000e-03
2.00000000e-03
2.00000000e-03
2.00000000e-03
2.00000000e-03
2.00000000e-03
2.00000000e-03
2.00000000e-03
2.00000000e-03
2.00000000e-03
2.00000000e-03
2.00000000e-03
2.00000000e-03
2.00000000e-03
2.00000000e-03
2.00000000e-03
2.00000000e-03
2.00000000e-03
2.00000000e-03
2.00000000e-03
2.00000000e-03
2.00000000e-03
2.00000000e-03
2.00000000e-03
2.00000000e-03
2.00000000e-03
2.00000000e-03
2.00000000e-03
2.00000000e-03
2.00000000e-03
2.00000000e-03
2.00000000e-03
2.00000000e-03
2.00000000e-03
2.00000000e-03
2.00000000e-03
2.00000000e-03
2.00000000e-03
2.00000000e-03
2.00000000e-03
2.00000000e-03
2.00000000e-03
2.00000000e-03
2.00000000e-03
2.00000000e-03
2.00000000e-03
2.00000000e-03
2.00000000e-03
2.00000000e-03
2.00000000e-03
2.00000000e-03
2.00000000e-03
2.00000000e-03
2.00000000e-03
2.00000000e-03
2.00000000e-03
2.00000000e-03
2.00000000e-03
2.00000000e-03
2.00000000e-03
2.00000000e-03
2.00000000e-03
2.00000000e-03
2.00000000e-03
2.00000000e-03
2.00000000e-03
2.00000000e-03
2.00000000e-03
2.00000000e-03
2.00000000e-03
2.00000000e-03
2.00000000e-03
2.00000000e-03
2.00000000e-03
2.00000000e-03
2.00000000e-03
2.00000000e-03
2.00000000e-03
2.00000000e-03
2.00000000e-03
2.00000000e-03
2.00000000e-03
2.00000000e-03
2.00000000e-03
2.00000000e-03
2.00000000e-03
2.00000000e-03
2.00000000e-03
2.00000000e-03
2.00000000e-03
2.00000000e-03
2.00000000e-03
2.00000000e-03
2.00000000e-03
2.00000000e-03
2.00000000e-03
2.00000000e-03
2.00000000e-03
2.00000000e-03
2.00000000e-03
2.00000000e-03
2.00000000e-03
2.00000000e-03
2.00000000e-03
2.00000000e-03
2.00000000e-03
2.00000000e-03
2.00000000e-03
2.00000000e-03
2.00000000e-03
2.00000000e-03
2.00000000e-03
2.00000000e-03
2.00000000e-03
2.00000000e-03
2.00000000e-03
2.00000000e-03
2.00000000e-03
2.00000000e-03
2.00000000e-03
2.00000000e-03
2.00000000e-03
2.00000000e-03
2.00000000e-03
2.00000000e-03
2.00000000e-03
2.00000000e-03
2.00000000e-03
2.00000000e-03
2.00000000e-03
2.00000000e-03
2.00000000e-03
2.00000000e-03
2.00000000e-03
2.00000000e-03
2.00000000e-03
2.00000000e-03
2.00000000e-03
2.00000000e-03
2.00000000e-03
2.00000000e-03
2.00000000e-03
2.00000000e-03
2.00000000e-03
2.00000000e-03
2.00000000e-03
2.00000000e-03
2.00000000e-03
2.00000000e-03
2.00000000e-03
2.00000000e-03
2.00000000e-03
2.00000000e-03
2.00000000e-03
2.00000000e-03
2.00000000e-03
2.00000000e-03
2.00000000e-03
2.00000000e-03
2.00000000e-03
2.00000000e-03
2.00000000e-03
2.00000000e-03
2.00000000e-03
2.00000000e-03
2.00000000e-03
2.00000000e-03
2.00000000e-03
2.00000000e-03
2.00000000e-03
2.00000000e-03
2.00000000e-03
2.00000000e-03
2.00000000e-03
2.00000000e-03
2.00000000e-03
2.00000000e-03
2.00000000e-03
2.00000000e-03
2.00000000e-03
2.00000000e-03
2.00000000e-03
2.00000000e-03
2.00000000e-03
2.00000000e-03
2.00000000e-03
2.00000000e-03
2.00000000e-03
2.00000000e-03
2.00000000e-03
2.00000000e-03
2.00000000e-03
2.00000000e-03
2.00000000e-03
2.00000000e-03
2.00000000e-03
2.00000000e-03
2.00000000e-03
2.00000000e-03
2.00000000e-03
2.00000000e-03
2.00000000e-03
2.00000000e-03
2.00000000e-03
2.00000000e-03
2.00000000e-03
2.00000000e-03
2.00000000e-03
2.00000000e-03
2.00000000e-03
2.00000000e-03
2.00000000e-03
2.00000000e-03
2.00000000e-03
2.00000000e-03
2.00000000e-03
2.00000000e-03
2.00000000e-03
2.00000000e-03
2.00000000e-03
2.00000000e-03
2.00000000e-03
2.00000000e-03
2.00000000e-03
2.00000000e-03
2.00000000e-03
2.00000000e-03
2.00000000e-03
2.00000000e-03
2.00000000e-03
2.00000000e-03
2.00000000e-03
2.00000000e-03
2.00000000e-03
2.00000000e-03
2.00000000e-03
2.00000000e-03
2.00000000e-03
2.00000000e-03
2.00000000e-03
2.00000000e-03
2.00000000e-03
2.00000000e-03
2.00000000e-03
2.00000000e-03
2.00000000e-03
2.00000000e-03
2.00000000e-03
2.00000000e-03
2.00000000e-03
2.00000000e-03
2.00000000e-03
2.00000000e-03
2.00000000e-03
2.00000000e-03
2.00000000e-03
2.00000000e-03
2.00000000e-03
2.00000000e-03
2.00000000e-03
2.00000000e-03
2.00000000e-03
2.00000000e-03
2.00000000e-03
2.00000000e-03
2.00000000e-03
2.00000000e-03
2.00000000e-03
2.00000000e-03
2.00000000e-03
2.00000000e-03
2.00000000e-03
2.00000000e-03
2.00000000e-03
2.00000000e-03
2.00000000e-03
2.00000000e-03
2.00000000e-03
2.00000000e-03
2.00000000e-03
2.00000000e-03
2.00000000e-03
2.00000000e-03
2.00000000e-03
2.00000000e-03
2.00000000e-03
2.00000000e-03
2.00000000e-03
2.00000000e-03
2.00000000e-03
2.00000000e-03
2.00000000e-03
2.00000000e-03
2.00000000e-03
2.00000000e-03
2.00000000e-03
2.00000000e-03
2.00000000e-03
2.00000000e-03
2.00000000e-03
2.00000000e-03
2.00000000e-03
2.00000000e-03
2.00000000e-03
2.00000000e-03
2.00000000e-03
2.00000000e-03
2.00000000e-03
2.00000000e-03
2.00000000e-03
2.00000000e-03
2.00000000e-03
