# vtk DataFile Version 2.0
Particle data
ASCII
DATASET POLYDATA
POINTS 469 double
2.56210000e-02	-2.58142000e-02	1.45043000e-02
2.26923000e-02	-1.92420000e-02	1.31276000e-02
2.60804000e-03	-3.99003000e-02	1.44311000e-02
3.21031000e-02	5.30369000e-03	8.25768000e-03
2.63497000e-02	-1.38025000e-02	2.48591000e-03
1.85157000e-02	-3.15116000e-02	2.66178000e-03
1.61584000e-02	-3.65817000e-02	1.78006000e-02
2.58482000e-02	5.19192000e-03	1.81001000e-02
-1.15985000e-02	-3.82597000e-02	1.72938000e-02
3.23649000e-02	1.49110000e-02	1.80692000e-02
2.82104000e-02	-2.32251000e-02	7.35706000e-03
1.77222000e-02	-2.45236000e-02	1.81000000e-02
-5.12203000e-03	-2.81017000e-02	1.10104000e-02
1.80525000e-02	-1.95625000e-02	5.03878000e-03
2.88016000e-02	-1.91989000e-02	1.45792000e-02
3.79935000e-02	1.23620000e-02	1.07321000e-02
1.99915000e-02	-3.83226000e-03	4.43291000e-03
1.50153000e-02	-2.02718000e-02	2.52407000e-03
2.53297000e-02	-5.33500000e-04	1.22351000e-02
2.61506000e-02	-3.02081000e-02	4.85244000e-03
3.13417000e-02	-1.88196000e-02	1.99981000e-03
-5.07485000e-03	-3.59738000e-02	1.80944000e-02
3.95648000e-02	5.21933000e-03	1.99880000e-03
4.45820000e-03	-3.72281000e-02	5.28957000e-03
1.11951000e-02	-3.22678000e-02	5.49367000e-03
3.17562000e-02	1.64077000e-02	9.59130000e-03
3.70718000e-02	-1.48991000e-02	1.47449000e-02
8.84896000e-03	-3.35903000e-02	1.81003000e-02
3.63164000e-02	-3.75500000e-04	1.18708000e-02
1.22846000e-02	-5.90666000e-03	1.67873000e-02
2.03508000e-02	-2.40871000e-02	8.96072000e-03
-1.06624000e-02	-3.84719000e-02	8.70244000e-03
1.57117000e-02	-2.66066000e-02	7.52898000e-03
4.52726000e-03	-2.93117000e-02	1.55507000e-02
1.95174000e-02	8.41613000e-03	1.04591000e-02
1.20599000e-02	-2.29633000e-02	1.26584000e-02
2.63403000e-02	-3.00353000e-02	9.59696000e-03
3.95913000e-02	-5.24862000e-03	9.99694000e-03
1.85891000e-02	-2.70371000e-02	1.36746000e-02
2.51801000e-02	-2.25407000e-02	4.83414000e-03
3.62483000e-02	-4.74879000e-03	1.22102000e-02
6.51193000e-03	-3.55470000e-02	1.55103000e-02
2.60356000e-02	1.89281000e-02	2.74498000e-03
2.72694000e-02	-2.42733000e-02	1.81003000e-02
1.02497000e-02	-2.00124000e-02	1.49023000e-02
3.11283000e-02	-1.80622000e-02	1.14971000e-02
2.48819000e-02	-1.31812000e-02	9.97351000e-03
3.42347000e-02	-1.20386000e-02	1.34110000e-02
2.35955000e-02	-4.18298000e-03	9.39395000e-03
3.12028000e-02	-2.49990000e-02	1.80894000e-02
2.68037000e-02	3.78174000e-03	2.00012000e-03
2.48958000e-02	-9.36868000e-03	8.76422000e-03
3.87847000e-02	-9.36602000e-03	1.19151000e-02
2.08505000e-02	-7.74887000e-04	2.00101000e-03
3.37279000e-02	1.16627000e-02	1.16555000e-02
3.32702000e-02	4.86316000e-03	1.49196000e-02
3.61646000e-02	1.65096000e-02	9.01405000e-03
3.10542000e-02	-1.31580000e-02	1.81009000e-02
1.07372000e-02	-8.14479000e-03	1.14793000e-02
1.96604000e-02	-1.37872000e-03	1.36152000e-02
7.07932000e-03	-1.27396000e-02	1.18295000e-02
7.47208000e-03	-2.46841000e-02	1.41628000e-02
1.97502000e-02	-5.40548000e-03	1.80981000e-02
3.67039000e-02	5.73471000e-03	8.52110000e-03
6.77744000e-03	-3.18094000e-02	4.20001000e-03
2.97847000e-02	-1.65770000e-02	5.43689000e-03
3.37715000e-02	1.96049000e-02	3.44426000e-03
1.51363000e-02	-2.42195000e-02	1.50633000e-02
2.78236000e-02	1.49882000e-02	6.06689000e-03
-7.99569000e-03	-2.94185000e-02	2.30661000e-03
3.55150000e-02	-4.58811000e-03	8.15890000e-03
-1.07359000e-02	-3.64491000e-02	5.25262000e-03
2.83176000e-02	-2.82416000e-02	1.78616000e-02
2.93572000e-02	-2.71558000e-02	1.40157000e-02
1.54827000e-03	-3.99600000e-02	3.05788000e-03
3.30628000e-02	-4.03896000e-03	1.81017000e-02
1.74850000e-02	-6.67586000e-03	5.71706000e-03
2.20186000e-02	-3.33683000e-02	6.34817000e-03
-2.03695000e-03	-1.94485000e-02	1.80563000e-02
3.78574000e-02	1.24049000e-02	1.80991000e-02
3.33385000e-02	-1.14202000e-02	9.56198000e-03
2.14615000e-02	-7.60241000e-03	9.81015000e-03
9.69274000e-03	-2.10563000e-02	1.00496000e-02
3.93244000e-03	-2.59117000e-02	1.81001000e-02
2.21480000e-03	-1.92353000e-02	2.54410000e-03
3.32777000e-02	-2.21566000e-02	3.05425000e-03
2.06915000e-02	-1.62452000e-02	1.81000000e-02
3.91076000e-02	8.17988000e-03	1.05805000e-02
5.15695000e-03	-2.76787000e-02	5.98383000e-03
2.25759000e-02	5.85044000e-03	4.36066000e-03
3.62553000e-02	-1.68161000e-02	1.06681000e-02
2.87461000e-02	-2.03518000e-02	4.62895000e-03
-4.21844000e-03	-3.97253000e-02	9.40681000e-03
3.74385000e-02	-1.40495000e-02	2.60147000e-03
1.48843000e-02	-2.54257000e-02	1.12589000e-02
-1.58856000e-02	-3.67002000e-02	1.80853000e-02
3.93681000e-02	6.71231000e-03	5.70337000e-03
2.68275000e-02	1.53744000e-02	1.34135000e-02
2.67893000e-03	-3.23845000e-02	1.06727000e-02
1.89093000e-02	-2.77611000e-02	9.75395000e-03
2.39425000e-02	9.93481000e-03	9.09568000e-03
2.70981000e-02	2.68395000e-03	1.06476000e-02
3.68835000e-02	-2.46990000e-03	1.55208000e-02
-5.73496000e-03	-3.23315000e-02	1.64321000e-02
1.46623000e-02	-3.17832000e-03	1.04451000e-02
3.43689000e-02	-2.03392000e-02	1.08264000e-02
1.45033000e-02	-1.75975000e-02	7.76549000e-03
1.81845000e-02	-2.37281000e-03	7.74634000e-03
3.01182000e-02	1.73998000e-02	2.15926000e-03
2.42883000e-02	-2.08076000e-02	8.86026000e-03
3.37897000e-02	1.23429000e-02	2.02215000e-03
3.28823000e-02	-1.67152000e-02	1.80999000e-02
3.13692000e-02	-7.72548000e-03	1.77698000e-02
3.20277000e-02	8.75224000e-03	2.01015000e-03
-8.76499000e-03	-2.93314000e-02	1.74836000e-02
1.75615000e-02	5.79149000e-03	2.00589000e-03
3.51555000e-02	-1.89187000e-02	1.44811000e-02
3.70503000e-02	1.47512000e-02	5.53080000e-03
2.16486000e-02	-1.63835000e-02	5.47717000e-03
1.07577000e-02	-3.85134000e-02	2.19576000e-03
3.03247000e-02	-1.37969000e-02	2.02791000e-03
9.90978000e-04	-2.70194000e-02	1.55779000e-02
2.19829000e-02	-3.33789000e-02	1.70646000e-02
1.13641000e-02	-2.74236000e-03	3.32926000e-03
-7.59073000e-03	-3.92609000e-02	1.80347000e-02
3.29770000e-02	-2.26002000e-02	1.40225000e-02
1.64014000e-02	-3.41095000e-02	5.18779000e-03
2.09898000e-02	-3.19740000e-02	1.22921000e-02
3.44752000e-02	3.46567000e-03	1.09460000e-02
3.11587000e-02	-6.77133000e-03	1.99907000e-03
3.18862000e-02	4.75549000e-03	1.99923000e-03
-1.28613000e-02	-3.43809000e-02	1.03826000e-02
2.89217000e-02	-1.73049000e-02	1.81001000e-02
1.42715000e-02	-3.56192000e-02	8.21799000e-03
1.86345000e-02	-1.38399000e-02	6.16179000e-03
1.92988000e-02	2.61684000e-03	9.84049000e-03
1.68336000e-02	-2.27878000e-02	7.08499000e-03
1.83766000e-02	-3.55173000e-02	2.00452000e-03
1.86842000e-03	-2.44709000e-02	1.24147000e-02
2.78949000e-02	2.93062000e-03	1.55121000e-02
1.49283000e-02	1.23322000e-03	1.80709000e-02
3.11580000e-02	-2.49508000e-02	1.12046000e-02
2.62494000e-02	-4.42211000e-03	1.24047000e-02
3.86394000e-02	-1.02792000e-02	2.01832000e-03
2.02006000e-02	-2.98365000e-02	5.87906000e-03
2.91251000e-02	-2.73810000e-02	2.71168000e-03
3.89182000e-02	9.16494000e-03	2.00088000e-03
2.28581000e-02	-2.42561000e-02	2.00000000e-03
1.95439000e-02	-1.24162000e-02	1.06294000e-02
2.55864000e-02	1.17324000e-02	1.45114000e-02
2.82309000e-02	-1.01914000e-02	1.80301000e-02
1.56957000e-02	-1.09741000e-02	1.04799000e-02
1.79028000e-02	-3.16092000e-02	9.33409000e-03
3.03326000e-02	-1.32936000e-02	1.19047000e-02
2.75725000e-02	-4.22994000e-04	6.67975000e-03
3.29814000e-02	8.84485000e-03	1.43941000e-02
1.46774000e-02	-3.24193000e-02	1.99938000e-03
2.40972000e-02	-1.12889000e-02	5.32450000e-03
-8.26970000e-03	-2.66934000e-02	1.44162000e-02
2.00930000e-02	-2.38349000e-02	4.86627000e-03
8.68879000e-03	-3.59360000e-02	9.02641000e-03
2.19767000e-02	-3.34036000e-02	1.99974000e-03
7.11134000e-03	-1.53141000e-02	8.76781000e-03
3.64679000e-02	1.79228000e-03	1.81004000e-02
1.29299000e-02	-1.13685000e-02	7.35980000e-03
2.21184000e-02	-2.31561000e-02	1.25353000e-02
2.97074000e-02	2.24289000e-03	4.59807000e-03
1.82625000e-02	-3.54924000e-02	8.44697000e-03
3.61982000e-02	5.78025000e-03	1.79593000e-02
3.83651000e-02	1.05714000e-02	6.01553000e-03
1.03308000e-02	-3.86204000e-02	1.62778000e-02
2.48219000e-02	1.36493000e-02	1.03105000e-02
3.49326000e-02	-9.51168000e-03	1.81005000e-02
2.13542000e-02	-1.99816000e-02	1.68358000e-02
2.51583000e-02	-3.10809000e-02	1.81008000e-02
-2.30553000e-04	-3.99549000e-02	9.60925000e-03
4.83884000e-03	-2.85948000e-02	2.10118000e-03
-5.36539000e-03	-3.20567000e-02	1.15038000e-02
-8.75343000e-04	-3.80663000e-02	1.51381000e-02
-3.33745000e-03	-3.78972000e-02	5.96018000e-03
3.60660000e-02	-1.39029000e-03	5.11431000e-03
6.65951000e-03	-2.40268000e-02	5.34443000e-03
3.43712000e-02	-2.04267000e-02	1.81010000e-02
3.99435000e-02	-2.19093000e-04	1.42681000e-02
7.57733000e-03	-2.97982000e-02	1.80922000e-02
1.14438000e-02	-3.30531000e-02	9.40767000e-03
2.60191000e-02	-8.05574000e-03	1.99981000e-03
5.80297000e-03	-3.49202000e-02	1.16151000e-02
2.44799000e-02	-2.71399000e-02	1.81004000e-02
9.59222000e-03	-3.36678000e-02	1.99997000e-03
3.46667000e-02	1.25625000e-02	1.54450000e-02
1.50175000e-02	-1.10127000e-02	1.77639000e-02
3.94237000e-02	6.54954000e-03	1.44852000e-02
3.89133000e-02	-9.11993000e-03	1.80307000e-02
2.23651000e-02	-1.40326000e-02	2.22407000e-03
3.07320000e-02	3.00354000e-03	1.24138000e-02
2.25911000e-03	-3.24839000e-02	1.46617000e-02
2.15318000e-02	-7.33693000e-04	9.49911000e-03
2.55323000e-02	-3.76738000e-03	5.87308000e-03
2.54314000e-02	1.66517000e-02	1.80545000e-02
3.26263000e-02	-1.55984000e-02	1.42683000e-02
3.07312000e-02	-1.07251000e-02	1.49439000e-02
3.90467000e-02	8.58600000e-03	1.80689000e-02
-5.35953000e-03	-3.57071000e-02	1.36420000e-02
3.05020000e-02	1.31905000e-02	1.45167000e-02
3.18251000e-02	-7.69637000e-03	8.18840000e-03
3.31504000e-02	-3.08120000e-03	1.42214000e-02
3.86598000e-02	-5.31589000e-03	5.79688000e-03
1.79122000e-02	-2.11893000e-02	1.51908000e-02
3.23591000e-02	-4.74036000e-04	1.12953000e-02
1.48066000e-02	-1.58263000e-04	1.34141000e-02
1.45551000e-02	-4.82976000e-03	2.00388000e-03
2.12803000e-02	5.14610000e-03	1.24353000e-02
6.22910000e-03	-1.92928000e-02	1.52232000e-02
2.36838000e-02	-1.08908000e-02	1.52562000e-02
1.57163000e-02	-1.63388000e-02	2.00729000e-03
[...]
POINT_DATA 469
SCALARS Radius double 1
LOOKUP_TABLE default
2.00000000e-03
2.00000000e-03
2.00000000e-03
2.00000000e-03
2.00000000e-03
2.00000000e-03
2.00000000e-03
2.00000000e-03
2.00000000e-03
2.00000000e-03
2.00000000e-03
2.00000000e-03
2.00000000e-03
2.00000000e-03
2.00000000e-03
2.00000000e-03
2.00000000e-03
2.00000000e-03
2.00000000e-03
2.00000000e-03
2.00000000e-03
2.00000000e-03
2.00000000e-03
2.00000000e-03
2.00000000e-03
2.00000000e-03
2.00000000e-03
2.00000000e-03
2.00000000e-03
2.00000000e-03
2.00000000e-03
2.00000000e-03
2.00000000e-03
2.00000000e-03
2.00000000e-03
2.00000000e-03
2.00000000e-03
2.00000000e-03
2.00000000e-03
2.00000000e-03
2.00000000e-03
2.00000000e-03
2.00000000e-03
2.00000000e-03
2.00000000e-03
2.00000000e-03
2.00000000e-03
2.00000000e-03
2.00000000e-03
2.00000000e-03
2.00000000e-03
2.00000000e-03
2.00000000e-03
2.00000000e-03
2.00000000e-03
2.00000000e-03
2.00000000e-03
2.00000000e-03
2.00000000e-03
2.00000000e-03
2.00000000e-03
2.00000000e-03
2.00000000e-03
2.00000000e-03
2.00000000e-03
2.00000000e-03
2.00000000e-03
2.00000000e-03
2.00000000e-03
2.00000000e-03
2.00000000e-03
2.00000000e-03
2.00000000e-03
2.00000000e-03
2.00000000e-03
2.00000000e-03
2.00000000e-03
2.00000000e-03
2.00000000e-03
2.00000000e-03
2.00000000e-03
2.00000000e-03
2.00000000e-03
2.00000000e-03
2.00000000e-03
2.00000000e-03
2.00000000e-03
2.00000000e-03
2.00000000e-03
2.00000000e-03
2.00000000e-03
2.00000000e-03
2.00000000e-03
2.00000000e-03
2.00000000e-03
2.00000000e-03
2.00000000e-03
2.00000000e-03
2.00000000e-03
2.00000000e-03
2.00000000e-03
2.00000000e-03
2.00000000e-03
2.00000000e-03
2.00000000e-03
2.00000000e-03
2.00000000e-03
2.00000000e-03
2.00000000e-03
2.00000000e-03
2.00000000e-03
2.00000000e-03
2.00000000e-03
2.00000000e-03
2.00000000e-03
2.00000000e-03
2.00000000e-03
2.00000000e-03
2.00000000e-03
2.00000000e-03
2.00000000e-03
2.00000000e-03
2.00000000e-03
2.00000000e-03
2.00000000e-03
2.00000000e-03
2.00000000e-03
2.00000000e-03
2.00000000e-03
2.00000000e-03
2.00000000e-03
2.00000000e-03
2.00000000e-03
2.00000000e-03
2.00000000e-03
2.00000000e-03
2.00000000e-03
2.00000000e-03
2.00000000e-03
2.00000000e-03
2.00000000e-03
2.00000000e-03
2.00000000e-03
2.00000000e-03
2.00000000e-03
2.00000000e-03
2.00000000e-03
2.00000000e-03
2.00000000e-03
2.00000000e-03
2.00000000e-03
2.00000000e-03
2.00000000e-03
2.00000000e-03
2.00000000e-03
2.00000000e-03
2.00000000e-03
2.00000000e-03
2.00000000e-03
2.00000000e-03
2.00000000e-03
2.00000000e-03
2.00000000e-03
2.00000000e-03
2.00000000e-03
2.00000000e-03
2.00000000e-03
2.00000000e-03
2.00000000e-03
2.00000000e-03
2.00000000e-03
2.00000000e-03
2.00000000e-03
2.00000000e-03
2.00000000e-03
2.00000000e-03
2.00000000e-03
2.00000000e-03
2.00000000e-03
2.00000000e-03
2.00000000e-03
2.00000000e-03
2.00000000e-03
2.00000000e-03
2.00000000e-03
2.00000000e-03
2.00000000e-03
2.00000000e-03
2.00000000e-03
2.00000000e-03
2.00000000e-03
2.00000000e-03
2.00000000e-03
2.00000000e-03
2.00000000e-03
2.00000000e-03
2.00000000e-03
2.00000000e-03
2.00000000e-03
2.00000000e-03
2.00000000e-03
2.00000000e-03
2.00000000e-03
2.00000000e-03
2.00000000e-03
2.00000000e-03
2.00000000e-03
2.00000000e-03
2.00000000e-03
2.00000000e-03
2.00000000e-03
2.00000000e-03
2.00000000e-03
2.00000000e-03
2.00000000e-03
2.00000000e-03
2.00000000e-03
2.00000000e-03
2.00000000e-03
2.00000000e-03
2.00000000e-03
2.00000000e-03
2.00000000e-03
2.00000000e-03
2.00000000e-03
2.00000000e-03
2.00000000e-03
2.00000000e-03
2.00000000e-03
2.00000000e-03
2.00000000e-03
2.00000000e-03
2.00000000e-03
2.00000000e-03
2.00000000e-03
2.00000000e-03
2.00000000e-03
2.00000000e-03
2.00000000e-03
2.00000000e-03
2.00000000e-03
2.00000000e-03
2.00000000e-03
2.00000000e-03
2.00000000e-03
2.00000000e-03
2.00000000e-03
2.00000000e-03
2.00000000e-03
2.00000000e-03
2.00000000e-03
2.00000000e-03
2.00000000e-03
2.00000000e-03
2.00000000e-03
2.00000000e-03
2.00000000e-03
2.00000000e-03
2.00000000e-03
2.00000000e-03
2.00000000e-03
2.00000000e-03
2.00000000e-03
2.00000000e-03
2.00000000e-03
2.00000000e-03
2.00000000e-03
2.00000000e-03
2.00000000e-03
2.00000000e-03
2.00000000e-03
2.00000000e-03
2.00000000e-03
2.00000000e-03
2.00000000e-03
2.00000000e-03
2.00000000e-03
2.00000000e-03
2.00000000e-03
2.00000000e-03
2.00000000e-03
2.00000000e-03
2.00000000e-03
2.00000000e-03
2.00000000e-03
2.00000000e-03
2.00000000e-03
2.00000000e-03
2.00000000e-03
2.00000000e-03
2.00000000e-03
2.00000000e-03
2.00000000e-03
2.00000000e-03
2.00000000e-03
2.00000000e-03
2.00000000e-03
2.00000000e-03
2.00000000e-03
2.00000000e-03
2.00000000e-03
2.00000000e-03
2.00000000e-03
2.00000000e-03
2.00000000e-03
2.00000000e-03
2.00000000e-03
2.00000000e-03
2.00000000e-03
2.00000000e-03
2.00000000e-03
2.00000000e-03
2.00000000e-03
2.00000000e-03
2.00000000e-03
2.00000000e-03
2.00000000e-03
2.00000000e-03
2.00000000e-03
2.00000000e-03
2.00000000e-03
2.00000000e-03
2.00000000e-03
2.00000000e-03
2.00000000e-03
2.00000000e-03
2.00000000e-03
2.00000000e-03
2.00000000e-03
2.00000000e-03
2.00000000e-03
2.00000000e-03
2.00000000e-03
2.00000000e-03
2.00000000e-03
2.00000000e-03
2.00000000e-03
2.00000000e-03
2.00000000e-03
2.00000000e-03
2.00000000e-03
2.00000000e-03
2.00000000e-03
2.00000000e-03
2.00000000e-03
2.00000000e-03
2.00000000e-03
2.00000000e-03
2.00000000e-03
2.00000000e-03
2.00000000e-03
2.00000000e-03
2.00000000e-03
2.00000000e-03
2.00000000e-03
2.00000000e-03
2.00000000e-03
2.00000000e-03
2.00000000e-03
2.00000000e-03
2.00000000e-03
2.00000000e-03
2.00000000e-03
2.00000000e-03
2.00000000e-03
2.00000000e-03
2.00000000e-03
2.00000000e-03
2.00000000e-03
2.00000000e-03
2.00000000e-03
2.00000000e-03
2.00000000e-03
2.00000000e-03
2.00000000e-03
2.00000000e-03
2.00000000e-03
2.00000000e-03
2.00000000e-03
2.00000000e-03
2.00000000e-03
2.00000000e-03
2.00000000e-03
2.00000000e-03
2.00000000e-03
2.00000000e-03
2.00000000e-03
2.00000000e-03
2.00000000e-03
2.00000000e-03
2.00000000e-03
2.00000000e-03
2.00000000e-03
2.00000000e-03
2.00000000e-03
2.00000000e-03
2.00000000e-03
2.00000000e-03
2.00000000e-03
2.00000000e-03
2.00000000e-03
2.00000000e-03
2.00000000e-03
2.00000000e-03
2.00000000e-03
2.00000000e-03
2.00000000e-03
2.00000000e-03
2.00000000e-03
2.00000000e-03
2.00000000e-03
2.00000000e-03
2.00000000e-03
2.00000000e-03
2.00000000e-03
2.00000000e-03
2.00000000e-03
2.00000000e-03
2.00000000e-03
2.00000000e-03
2.00000000e-03
2.00000000e-03
2.00000000e-03
2.00000000e-03
2.00000000e-03
2.00000000e-03
2.00000000e-03
2.00000000e-03
2.00000000e-03
2.00000000e-03
2.00000000e-03
2.00000000e-03
2.00000000e-03
2.00000000e-03
2.00000000e-03
2.00000000e-03
2.00000000e-03
2.00000000e-03
2.00000000e-03
2.00000000e-03
2.00000000e-03
2.00000000e-03
2.00000000e-03
2.00000000e-03
2.00000000e-03
2.00000000e-03
2.00000000e-03
2.00000000e-03
2.00000000e-03
2.00000000e-03
2.00000000e-03
2.00000000e-03
2.00000000e-03
2.00000000e-03
2.00000000e-03
2.00000000e-03
2.00000000e-03
2.00000000e-03
2.00000000e-03
2.00000000e-03
2.00000000e-03
2.00000000e-03
2.00000000e-03
2.00000000e-03
2.00000000e-03
2.00000000e-03
2.00000000e-03
2.00000000e-03
2.00000000e-03
