# vtk DataFile Version 2.0
Particle data
ASCII
DATASET POLYDATA
POINTS 469 double
-6.10114000e-04	-3.65184000e-02	1.45679000e-02
5.81031000e-03	-2.49959000e-02	1.30402000e-02
1.01957000e-02	-9.71786000e-03	6.57262000e-03
2.81248000e-02	-1.78530000e-02	9.98799000e-03
8.41842000e-03	-2.86976000e-02	2.51339000e-03
-9.34942000e-03	-3.56658000e-02	2.83576000e-03
-1.45933000e-02	-3.72233000e-02	1.80956000e-02
2.74258000e-02	-1.21817000e-02	1.81016000e-02
2.34379000e-02	1.42665000e-02	1.81000000e-02
3.69469000e-02	-9.40021000e-03	1.80999000e-02
2.92406000e-03	-3.65788000e-02	7.43225000e-03
-1.19809000e-04	-2.60980000e-02	1.80577000e-02
3.56964000e-02	1.65399000e-02	1.20508000e-02
9.63324000e-03	-2.06881000e-02	6.40914000e-03
6.66649000e-03	-3.39410000e-02	1.44530000e-02
3.68579000e-02	-1.53491000e-02	1.05589000e-02
2.48224000e-02	-1.13720000e-02	5.85339000e-03
1.22295000e-02	-4.80786000e-03	2.22785000e-03
2.55466000e-02	-1.14528000e-02	1.38673000e-02
-3.88838000e-03	-3.97747000e-02	4.82636000e-03
8.00025000e-03	-3.57389000e-02	1.99906000e-03
2.75013000e-02	1.42032000e-02	1.73949000e-02
3.29811000e-02	-2.26041000e-02	1.99799000e-03
7.27123000e-03	-1.99768000e-02	3.12909000e-03
1.34354000e-02	-9.44521000e-03	2.18388000e-03
3.58544000e-02	-8.66558000e-03	9.43539000e-03
1.67169000e-02	-3.63246000e-02	1.51269000e-02
1.17539000e-02	-8.70169000e-03	1.45706000e-02
2.58274000e-02	-2.60156000e-02	1.17540000e-02
2.57525000e-02	-7.82502000e-03	1.55369000e-02
3.41124000e-03	-2.24409000e-02	8.41340000e-03
1.47977000e-02	-1.50898000e-03	3.56747000e-03
-1.25430000e-03	-2.56552000e-02	6.41110000e-03
2.41086000e-02	7.75315000e-03	1.81001000e-02
3.99119000e-02	1.45101000e-03	1.04966000e-02
1.40226000e-02	-9.60142000e-03	1.13593000e-02
-3.49007000e-03	-3.97899000e-02	9.92262000e-03
2.37837000e-02	-3.20477000e-02	9.75168000e-03
-2.09319000e-03	-3.05140000e-02	1.24115000e-02
1.92033000e-03	-3.27342000e-02	4.35980000e-03
2.27508000e-02	-2.85740000e-02	1.14439000e-02
5.59055000e-03	-1.52854000e-02	1.43378000e-02
3.99770000e-02	8.12182000e-04	2.63159000e-03
1.59290000e-03	-3.64327000e-02	1.80437000e-02
2.87889000e-02	-3.03483000e-05	1.48059000e-02
8.75613000e-03	-3.49334000e-02	1.11902000e-02
1.09480000e-02	-2.42860000e-02	9.74966000e-03
1.62083000e-02	-3.25207000e-02	1.40021000e-02
2.14533000e-02	-1.74168000e-02	1.05823000e-02
4.66030000e-03	-3.97176000e-02	1.80968000e-02
2.70210000e-02	-1.17514000e-02	1.99984000e-03
1.52035000e-02	-2.10265000e-02	8.41667000e-03
2.06924000e-02	-3.41308000e-02	1.16667000e-02
2.32500000e-02	-1.34622000e-02	1.99973000e-03
3.32871000e-02	-1.39734000e-02	1.17241000e-02
2.76856000e-02	-2.00224000e-02	1.51259000e-02
3.80789000e-02	-1.19369000e-02	8.84544000e-03
1.30698000e-02	-3.09740000e-02	1.81006000e-02
3.55881000e-02	4.63683000e-03	1.43134000e-02
3.24157000e-02	-1.68266000e-03	1.43769000e-02
3.54168000e-02	7.33495000e-03	1.76958000e-02
2.56656000e-02	4.38533000e-03	9.21730000e-03
1.76609000e-02	-1.62519000e-02	1.77552000e-02
3.09123000e-02	-2.07245000e-02	8.87488000e-03
2.31335000e-02	1.01611000e-02	5.49452000e-03
8.79542000e-03	-3.29352000e-02	5.68228000e-03
3.97734000e-02	-4.12175000e-03	3.24371000e-03
4.94623000e-03	-2.19125000e-02	1.54363000e-02
3.55245000e-02	-6.04516000e-03	6.43170000e-03
3.73089000e-02	1.31355000e-02	9.13774000e-03
2.22574000e-02	-2.78222000e-02	7.53386000e-03
3.00829000e-02	1.77799000e-02	1.99945000e-03
-2.35406000e-04	-3.99788000e-02	1.77764000e-02
1.60682000e-03	-3.99288000e-02	1.42037000e-02
-2.92430000e-03	-2.02807000e-02	1.02301000e-02
2.20981000e-02	-2.64961000e-02	1.81004000e-02
2.20193000e-02	-1.45327000e-02	5.93370000e-03
-8.62271000e-03	-3.90370000e-02	6.13788000e-03
3.78199000e-02	1.26293000e-02	1.81006000e-02
3.61787000e-02	-1.70220000e-02	1.80971000e-02
1.52979000e-02	-3.08426000e-02	8.85145000e-03
2.67319000e-02	3.04480000e-03	5.60256000e-03
2.27178000e-02	-2.07470000e-03	1.99938000e-03
2.77600000e-02	1.99289000e-03	1.80995000e-02
3.28792000e-02	2.45430000e-03	2.00096000e-03
6.79740000e-03	-3.94005000e-02	3.06682000e-03
5.99202000e-03	-2.51188000e-02	1.80684000e-02
3.43848000e-02	-2.02950000e-02	1.08190000e-02
3.37204000e-02	9.06749000e-03	6.54148000e-03
3.24360000e-02	-5.04930000e-03	4.00446000e-03
1.33010000e-02	-3.77014000e-02	1.05910000e-02
5.34094000e-03	-3.47566000e-02	4.81945000e-03
2.64710000e-02	1.34253000e-02	7.04637000e-03
1.56569000e-02	-3.68032000e-02	2.65401000e-03
-1.82580000e-03	-2.57042000e-02	1.10270000e-02
2.16452000e-02	1.28410000e-02	8.07623000e-03
3.32666000e-02	-2.21044000e-02	5.95391000e-03
3.59644000e-02	-5.85955000e-03	1.22836000e-02
2.32071000e-02	2.76843000e-03	1.81001000e-02
-1.74949000e-03	-2.89888000e-02	8.72966000e-03
3.08906000e-02	-7.20679000e-03	6.99692000e-03
3.22171000e-02	-6.54980000e-03	1.10059000e-02
2.49839000e-02	-2.72962000e-02	1.54492000e-02
3.56768000e-02	1.58657000e-02	1.71373000e-02
3.24211000e-02	-3.58432000e-03	7.72517000e-03
9.45768000e-03	-3.87976000e-02	1.04338000e-02
2.11414000e-02	-1.08391000e-02	7.34074000e-03
2.73439000e-02	-6.59608000e-03	5.21567000e-03
3.60926000e-02	-5.14178000e-03	2.05691000e-03
4.66265000e-03	-2.85040000e-02	9.00481000e-03
3.50211000e-02	-1.20443000e-02	1.99942000e-03
1.12116000e-02	-3.52723000e-02	1.80890000e-02
1.77308000e-02	-2.69622000e-02	1.73824000e-02
2.95814000e-02	-1.56213000e-02	1.99972000e-03
3.18082000e-02	5.94489000e-03	1.43144000e-02
3.24030000e-02	-1.51451000e-03	2.13339000e-03
1.20334000e-02	-3.81259000e-02	1.52365000e-02
3.78043000e-02	-1.28350000e-02	4.95755000e-03
5.26833000e-03	-2.62958000e-02	5.56247000e-03
-1.49475000e-03	-2.15891000e-02	5.94125000e-03
1.12947000e-02	-3.14276000e-02	2.00001000e-03
2.57591000e-02	-4.37919000e-03	1.35063000e-02
-9.19171000e-03	-3.88936000e-02	1.70667000e-02
3.90621000e-02	7.28257000e-03	5.70287000e-03
3.35620000e-02	2.02729000e-02	1.80991000e-02
8.27677000e-03	-3.90773000e-02	1.42458000e-02
-1.03825000e-02	-3.30682000e-02	5.82626000e-03
-8.67968000e-03	-3.68431000e-02	1.24159000e-02
2.76801000e-02	-2.16898000e-02	1.10203000e-02
1.76640000e-02	-2.69291000e-02	1.99925000e-03
2.64993000e-02	-1.87304000e-02	1.99928000e-03
3.32980000e-02	1.77470000e-02	4.81791000e-03
9.15696000e-03	-3.18340000e-02	1.80997000e-02
8.79181000e-04	-1.73148000e-02	1.05683000e-02
1.63027000e-02	-1.18127000e-02	3.70311000e-03
3.92930000e-02	6.75595000e-03	1.29186000e-02
5.88751000e-03	-1.91919000e-02	7.20523000e-03
-1.24983000e-02	-3.79851000e-02	2.00426000e-03
2.41576000e-02	-9.01752000e-03	1.06406000e-02
2.48127000e-02	-1.58753000e-02	1.54585000e-02
3.17786000e-02	2.67535000e-03	1.71642000e-02
4.74692000e-03	-3.96551000e-02	1.06805000e-02
1.64239000e-02	-2.20348000e-02	1.24046000e-02
2.04091000e-02	-3.43502000e-02	2.45177000e-03
-6.52444000e-03	-3.56657000e-02	5.66569000e-03
3.39675000e-04	-3.99785000e-02	2.35934000e-03
3.49977000e-02	-1.91528000e-02	2.00022000e-03
-1.26592000e-03	-3.34869000e-02	2.06034000e-03
1.63252000e-02	-1.79155000e-02	1.06828000e-02
3.26142000e-02	-7.23063000e-03	1.49274000e-02
1.28460000e-02	-2.69888000e-02	1.78503000e-02
2.46804000e-02	-2.28022000e-03	8.50069000e-03
-9.22469000e-03	-3.57200000e-02	8.61611000e-03
1.25244000e-02	-3.09636000e-02	1.22058000e-02
2.53505000e-02	-1.54676000e-02	8.37412000e-03
3.09862000e-02	-1.60974000e-02	1.42132000e-02
-5.03345000e-03	-2.69628000e-02	5.40745000e-03
1.06569000e-02	-2.43748000e-02	5.24545000e-03
3.73534000e-02	1.36488000e-02	1.42615000e-02
-1.57635000e-03	-3.02060000e-02	4.92257000e-03
1.99457000e-02	8.49607000e-03	9.84181000e-03
-7.13917000e-03	-3.93430000e-02	1.99992000e-03
3.68439000e-02	8.22924000e-03	8.89563000e-03
2.73170000e-02	-2.43737000e-02	1.81024000e-02
2.10471000e-02	-6.12928000e-03	1.99997000e-03
1.87492000e-03	-2.92594000e-02	1.24457000e-02
2.43503000e-02	-1.77017000e-02	5.21128000e-03
-1.25616000e-02	-3.78598000e-02	8.08248000e-03
3.03410000e-02	-2.11213000e-02	1.80723000e-02
3.52792000e-02	-1.86528000e-02	6.13619000e-03
-1.93472000e-02	-3.49809000e-02	1.64077000e-02
3.58506000e-02	-2.83291000e-03	9.67110000e-03
1.86045000e-02	-3.07985000e-02	1.80967000e-02
1.35034000e-03	-2.97333000e-02	1.72694000e-02
-5.13682000e-03	-3.96610000e-02	1.80961000e-02
-1.05241000e-02	-2.75104000e-02	1.47855000e-02
2.64608000e-02	2.00111000e-02	2.21112000e-03
3.15043000e-02	1.29950000e-02	1.80829000e-02
-1.56762000e-04	-2.08832000e-02	1.41966000e-02
1.78393000e-02	-9.02657000e-03	9.39987000e-03
2.53422000e-02	-2.58973000e-02	5.07962000e-03
3.05933000e-02	2.02428000e-03	5.36977000e-03
9.30610000e-03	-3.87890000e-02	1.81002000e-02
2.86936000e-02	-2.78333000e-02	1.39044000e-02
2.52551000e-02	8.42081000e-03	1.31899000e-02
-1.04596000e-02	-3.12346000e-02	1.33102000e-02
1.44734000e-02	-2.35970000e-02	1.99979000e-03
1.59459000e-02	-6.04499000e-03	1.18679000e-02
-2.47555000e-03	-3.66761000e-02	1.81010000e-02
1.86857000e-04	-2.16710000e-02	2.07615000e-03
3.43040000e-02	-1.44279000e-02	1.56974000e-02
2.49279000e-02	5.03077000e-03	1.52866000e-02
3.30130000e-02	-2.25496000e-02	1.48218000e-02
2.09515000e-02	-3.40356000e-02	1.80187000e-02
7.74562000e-03	-2.47850000e-02	2.03401000e-03
2.47373000e-02	-1.87901000e-02	1.27210000e-02
2.90649000e-02	9.92521000e-03	1.10558000e-02
2.82008000e-02	-8.89781000e-03	9.59076000e-03
2.03648000e-02	-1.91838000e-02	6.98645000e-03
3.55440000e-02	-5.65446000e-03	1.80996000e-02
1.26316000e-02	-3.42417000e-02	1.44944000e-02
1.48829000e-02	-2.88730000e-02	1.49694000e-02
3.42997000e-02	-2.05526000e-02	1.81001000e-02
3.31912000e-02	1.95185000e-02	1.11319000e-02
3.48684000e-02	-1.05632000e-02	1.47102000e-02
1.75854000e-02	-2.78215000e-02	7.56346000e-03
2.17393000e-02	-2.55647000e-02	1.38769000e-02
2.32840000e-02	-3.12876000e-02	5.82054000e-03
7.53864000e-03	-1.86467000e-02	1.33681000e-02
2.34098000e-02	-2.28300000e-02	1.14831000e-02
3.97759000e-02	2.99324000e-03	1.41828000e-02
2.89536000e-02	-3.82518000e-03	2.05858000e-03
3.67823000e-02	1.13902000e-05	1.25871000e-02
3.25949000e-02	2.16136000e-03	1.32836000e-02
9.60338000e-03	-2.48625000e-02	1.53332000e-02
[...]
POINT_DATA 469
SCALARS Radius double 1
LOOKUP_TABLE default
2.00000000e-03
2.00000000e-03
2.00000000e-03
2.00000000e-03
2.00000000e-03
2.00000000e-03
2.00000000e-03
2.00000000e-03
2.00000000e-03
2.00000000e-03
2.00000000e-03
2.00000000e-03
2.00000000e-03
2.00000000e-03
2.00000000e-03
2.00000000e-03
2.00000000e-03
2.00000000e-03
2.00000000e-03
2.00000000e-03
2.00000000e-03
2.00000000e-03
2.00000000e-03
2.00000000e-03
2.00000000e-03
2.00000000e-03
2.00000000e-03
2.00000000e-03
2.00000000e-03
2.00000000e-03
2.00000000e-03
2.00000000e-03
2.00000000e-03
2.00000000e-03
2.00000000e-03
2.00000000e-03
2.00000000e-03
2.00000000e-03
2.00000000e-03
2.00000000e-03
2.00000000e-03
2.00000000e-03
2.00000000e-03
2.00000000e-03
2.00000000e-03
2.00000000e-03
2.00000000e-03
2.00000000e-03
2.00000000e-03
2.00000000e-03
2.00000000e-03
2.00000000e-03
2.00000000e-03
2.00000000e-03
2.00000000e-03
2.00000000e-03
2.00000000e-03
2.00000000e-03
2.00000000e-03
2.00000000e-03
2.00000000e-03
2.00000000e-03
2.00000000e-03
2.00000000e-03
2.00000000e-03
2.00000000e-03
2.00000000e-03
2.00000000e-03
2.00000000e-03
2.00000000e-03
2.00000000e-03
2.00000000e-03
2.00000000e-03
2.00000000e-03
2.00000000e-03
2.00000000e-03
2.00000000e-03
2.00000000e-03
2.00000000e-03
2.00000000e-03
2.00000000e-03
2.00000000e-03
2.00000000e-03
2.00000000e-03
2.00000000e-03
2.00000000e-03
2.00000000e-03
2.00000000e-03
2.00000000e-03
2.00000000e-03
2.00000000e-03
2.00000000e-03
2.00000000e-03
2.00000000e-03
2.00000000e-03
2.00000000e-03
2.00000000e-03
2.00000000e-03
2.00000000e-03
2.00000000e-03
2.00000000e-03
2.00000000e-03
2.00000000e-03
2.00000000e-03
2.00000000e-03
2.00000000e-03
2.00000000e-03
2.00000000e-03
2.00000000e-03
2.00000000e-03
2.00000000e-03
2.00000000e-03
2.00000000e-03
2.00000000e-03
2.00000000e-03
2.00000000e-03
2.00000000e-03
2.00000000e-03
2.00000000e-03
2.00000000e-03
2.00000000e-03
2.00000000e-03
2.00000000e-03
2.00000000e-03
2.00000000e-03
2.00000000e-03
2.00000000e-03
2.00000000e-03
2.00000000e-03
2.00000000e-03
2.00000000e-03
2.00000000e-03
2.00000000e-03
2.00000000e-03
2.00000000e-03
2.00000000e-03
2.00000000e-03
2.00000000e-03
2.00000000e-03
2.00000000e-03
2.00000000e-03
2.00000000e-03
2.00000000e-03
2.00000000e-03
2.00000000e-03
2.00000000e-03
2.00000000e-03
2.00000000e-03
2.00000000e-03
2.00000000e-03
2.00000000e-03
2.00000000e-03
2.00000000e-03
2.00000000e-03
2.00000000e-03
2.00000000e-03
2.00000000e-03
2.00000000e-03
2.00000000e-03
2.00000000e-03
2.00000000e-03
2.00000000e-03
2.00000000e-03
2.00000000e-03
2.00000000e-03
2.00000000e-03
2.00000000e-03
2.00000000e-03
2.00000000e-03
2.00000000e-03
2.00000000e-03
2.00000000e-03
2.00000000e-03
2.00000000e-03
2.00000000e-03
2.00000000e-03
2.00000000e-03
2.00000000e-03
2.00000000e-03
2.00000000e-03
2.00000000e-03
2.00000000e-03
2.00000000e-03
2.00000000e-03
2.00000000e-03
2.00000000e-03
2.00000000e-03
2.00000000e-03
2.00000000e-03
2.00000000e-03
2.00000000e-03
2.00000000e-03
2.00000000e-03
2.00000000e-03
2.00000000e-03
2.00000000e-03
2.00000000e-03
2.00000000e-03
2.00000000e-03
2.00000000e-03
2.00000000e-03
2.00000000e-03
2.00000000e-03
2.00000000e-03
2.00000000e-03
2.00000000e-03
2.00000000e-03
2.00000000e-03
2.00000000e-03
2.00000000e-03
2.00000000e-03
2.00000000e-03
2.00000000e-03
2.00000000e-03
2.00000000e-03
2.00000000e-03
2.00000000e-03
2.00000000e-03
2.00000000e-03
2.00000000e-03
2.00000000e-03
2.00000000e-03
2.00000000e-03
2.00000000e-03
2.00000000e-03
2.00000000e-03
2.00000000e-03
2.00000000e-03
2.00000000e-03
2.00000000e-03
2.00000000e-03
2.00000000e-03
2.00000000e-03
2.00000000e-03
2.00000000e-03
2.00000000e-03
2.00000000e-03
2.00000000e-03
2.00000000e-03
2.00000000e-03
2.00000000e-03
2.00000000e-03
2.00000000e-03
2.00000000e-03
2.00000000e-03
2.00000000e-03
2.00000000e-03
2.00000000e-03
2.00000000e-03
2.00000000e-03
2.00000000e-03
2.00000000e-03
2.00000000e-03
2.00000000e-03
2.00000000e-03
2.00000000e-03
2.00000000e-03
2.00000000e-03
2.00000000e-03
2.00000000e-03
2.00000000e-03
2.00000000e-03
2.00000000e-03
2.00000000e-03
2.00000000e-03
2.00000000e-03
2.00000000e-03
2.00000000e-03
2.00000000e-03
2.00000000e-03
2.00000000e-03
2.00000000e-03
2.00000000e-03
2.00000000e-03
2.00000000e-03
2.00000000e-03
2.00000000e-03
2.00000000e-03
2.00000000e-03
2.00000000e-03
2.00000000e-03
2.00000000e-03
2.00000000e-03
2.00000000e-03
2.00000000e-03
2.00000000e-03
2.00000000e-03
2.00000000e-03
2.00000000e-03
2.00000000e-03
2.00000000e-03
2.00000000e-03
2.00000000e-03
2.00000000e-03
2.00000000e-03
2.00000000e-03
2.00000000e-03
2.00000000e-03
2.00000000e-03
2.00000000e-03
2.00000000e-03
2.00000000e-03
2.00000000e-03
2.00000000e-03
2.00000000e-03
2.00000000e-03
2.00000000e-03
2.00000000e-03
2.00000000e-03
2.00000000e-03
2.00000000e-03
2.00000000e-03
2.00000000e-03
2.00000000e-03
2.00000000e-03
2.00000000e-03
2.00000000e-03
2.00000000e-03
2.00000000e-03
2.00000000e-03
2.00000000e-03
2.00000000e-03
2.00000000e-03
2.00000000e-03
2.00000000e-03
2.00000000e-03
2.00000000e-03
2.00000000e-03
2.00000000e-03
2.00000000e-03
2.00000000e-03
2.00000000e-03
2.00000000e-03
2.00000000e-03
2.00000000e-03
2.00000000e-03
2.00000000e-03
2.00000000e-03
2.00000000e-03
2.00000000e-03
2.00000000e-03
2.00000000e-03
2.00000000e-03
2.00000000e-03
2.00000000e-03
2.00000000e-03
2.00000000e-03
2.00000000e-03
2.00000000e-03
2.00000000e-03
2.00000000e-03
2.00000000e-03
2.00000000e-03
2.00000000e-03
2.00000000e-03
2.00000000e-03
2.00000000e-03
2.00000000e-03
2.00000000e-03
2.00000000e-03
2.00000000e-03
2.00000000e-03
2.00000000e-03
2.00000000e-03
2.00000000e-03
2.00000000e-03
2.00000000e-03
2.00000000e-03
2.00000000e-03
2.00000000e-03
2.00000000e-03
2.00000000e-03
2.00000000e-03
2.00000000e-03
2.00000000e-03
2.00000000e-03
2.00000000e-03
2.00000000e-03
2.00000000e-03
2.00000000e-03
2.00000000e-03
2.00000000e-03
2.00000000e-03
2.00000000e-03
2.00000000e-03
2.00000000e-03
2.00000000e-03
2.00000000e-03
2.00000000e-03
2.00000000e-03
2.00000000e-03
2.00000000e-03
2.00000000e-03
2.00000000e-03
2.00000000e-03
2.00000000e-03
2.00000000e-03
2.00000000e-03
2.00000000e-03
2.00000000e-03
2.00000000e-03
2.00000000e-03
2.00000000e-03
2.00000000e-03
2.00000000e-03
2.00000000e-03
2.00000000e-03
2.00000000e-03
2.00000000e-03
2.00000000e-03
2.00000000e-03
2.00000000e-03
2.00000000e-03
2.00000000e-03
2.00000000e-03
2.00000000e-03
2.00000000e-03
2.00000000e-03
2.00000000e-03
2.00000000e-03
2.00000000e-03
2.00000000e-03
2.00000000e-03
2.00000000e-03
2.00000000e-03
2.00000000e-03
2.00000000e-03
2.00000000e-03
2.00000000e-03
2.00000000e-03
2.00000000e-03
2.00000000e-03
2.00000000e-03
2.00000000e-03
2.00000000e-03
2.00000000e-03
2.00000000e-03
2.00000000e-03
2.00000000e-03
2.00000000e-03
2.00000000e-03
2.00000000e-03
2.00000000e-03
2.00000000e-03
2.00000000e-03
2.00000000e-03
2.00000000e-03
2.00000000e-03
2.00000000e-03
2.00000000e-03
2.00000000e-03
2.00000000e-03
2.00000000e-03
2.00000000e-03
2.00000000e-03
2.00000000e-03
2.00000000e-03
2.00000000e-03
2.00000000e-03
2.00000000e-03
2.00000000e-03
2.00000000e-03
2.00000000e-03
2.00000000e-03
2.00000000e-03
2.00000000e-03
2.00000000e-03
2.00000000e-03
2.00000000e-03
