# vtk DataFile Version 2.0
Particle data
ASCII
DATASET POLYDATA
POINTS 469 double
6.53195000e-03	-3.53606000e-02	8.45447000e-03
1.25048000e-02	-1.19727000e-02	7.65360000e-03
2.27302000e-02	1.03752000e-02	2.00021000e-03
3.90654000e-02	-8.56040000e-03	1.79718000e-02
2.11950000e-02	8.09469000e-03	4.92225000e-03
9.54785000e-03	-3.88301000e-02	2.43481000e-03
5.48240000e-03	-3.28700000e-02	1.14030000e-02
2.34574000e-02	-1.78211000e-02	1.76205000e-02
1.89689000e-04	-2.45326000e-02	1.78859000e-02
3.61370000e-02	6.01994000e-03	1.09513000e-02
1.39281000e-02	-3.74839000e-02	1.78442000e-02
5.89538000e-03	-2.49668000e-02	1.78717000e-02
-2.02744000e-03	-2.65642000e-02	1.47971000e-02
3.02589000e-02	2.12118000e-02	2.02342000e-03
1.19039000e-02	-3.81093000e-02	1.44321000e-02
3.30188000e-02	-5.43608000e-03	1.22145000e-02
3.45892000e-02	-1.20752000e-02	1.42749000e-02
4.88253000e-03	-2.03983000e-02	3.25233000e-03
2.54178000e-02	-1.93124000e-02	1.41038000e-02
1.69465000e-02	-3.40470000e-02	1.11179000e-02
2.01721000e-02	-3.03616000e-02	2.00853000e-03
3.42055000e-03	-9.45120000e-03	1.80942000e-02
3.67946000e-02	-4.47644000e-03	1.13104000e-02
1.83804000e-02	-1.66481000e-02	2.19715000e-03
2.79168000e-02	7.15773000e-03	1.99981000e-03
3.76517000e-02	2.28011000e-03	1.48069000e-02
2.85417000e-02	-2.79916000e-02	1.44089000e-02
-4.03069000e-03	-3.25950000e-02	1.51211000e-02
3.65477000e-02	-1.61854000e-02	1.68705000e-02
1.75573000e-02	-1.21544000e-02	1.45255000e-02
4.58504000e-03	-1.92342000e-02	1.44131000e-02
-6.10397000e-03	-3.95213000e-02	2.00100000e-03
3.05945000e-03	-2.51757000e-02	6.55807000e-03
2.19563000e-02	-1.61987000e-03	1.81001000e-02
2.82534000e-02	-4.87199000e-04	9.11146000e-03
2.87315000e-02	1.77686000e-02	1.12756000e-02
9.26712000e-03	-3.67034000e-02	5.84393000e-03
2.93519000e-02	-2.15722000e-02	9.44454000e-03
7.79947000e-03	-2.37476000e-02	1.21682000e-02
2.60301000e-02	-5.35552000e-04	2.48500000e-03
2.69381000e-02	-2.44359000e-02	8.04049000e-03
-4.66072000e-03	-3.65380000e-02	1.54085000e-02
3.08819000e-02	9.84207000e-03	2.00004000e-03
9.32955000e-03	-2.57743000e-02	1.54258000e-02
3.61419000e-02	-1.17155000e-03	1.34647000e-02
2.08547000e-02	-2.98425000e-02	1.09463000e-02
1.62922000e-02	-2.46040000e-02	1.36177000e-02
1.50161000e-02	-2.56709000e-02	5.37791000e-03
1.88802000e-02	-1.53022000e-02	1.12882000e-02
6.95979000e-03	-2.89898000e-02	1.80953000e-02
1.21851000e-02	-1.73966000e-02	1.99972000e-03
1.49750000e-02	-1.47261000e-02	3.03974000e-03
3.59276000e-02	-6.62188000e-03	1.64245000e-02
2.40984000e-02	-1.64207000e-02	8.12129000e-03
3.99702000e-02	-6.26801000e-04	4.74109000e-03
3.52156000e-02	-1.88500000e-02	1.41867000e-02
3.59056000e-02	2.47874000e-03	9.10722000e-03
1.86244000e-02	-2.75887000e-02	1.49023000e-02
3.93496000e-02	6.81744000e-03	1.41218000e-02
3.58402000e-02	7.60724000e-03	1.67951000e-02
3.13524000e-02	1.97001000e-02	1.66367000e-02
2.47980000e-02	-8.12913000e-03	1.15357000e-02
1.22070000e-02	-2.47971000e-02	1.81002000e-02
3.39187000e-02	-1.37578000e-02	1.01201000e-02
2.24620000e-02	1.41101000e-02	3.40761000e-03
2.03196000e-02	-3.44089000e-02	6.90808000e-03
3.29750000e-02	9.61268000e-03	5.40085000e-03
1.18450000e-02	-7.02615000e-03	1.79755000e-02
3.97120000e-02	3.75866000e-03	1.15711000e-02
3.07175000e-02	1.43662000e-02	1.05325000e-02
3.00627000e-02	-2.62804000e-02	6.34917000e-03
7.36141000e-03	-9.89306000e-03	2.00286000e-03
1.03968000e-02	-3.25160000e-02	1.81009000e-02
2.46324000e-02	-2.76613000e-02	8.56789000e-03
-7.71701000e-04	-3.62681000e-02	5.93382000e-03
2.71881000e-02	-2.87263000e-02	1.81003000e-02
2.70259000e-02	-1.94504000e-02	5.78289000e-03
1.06205000e-02	-1.99376000e-02	5.89955000e-03
1.55781000e-02	-1.39543000e-03	4.51263000e-03
2.06301000e-02	-1.47721000e-02	1.81014000e-02
1.88035000e-02	-2.70769000e-02	5.51603000e-03
2.50232000e-02	-9.46491000e-04	6.79775000e-03
3.47701000e-02	8.51635000e-03	1.99940000e-03
3.20028000e-02	1.58626000e-02	1.75725000e-02
2.73932000e-02	3.19279000e-03	1.99983000e-03
2.04855000e-02	-3.43481000e-02	1.99931000e-03
-1.92024000e-03	-3.67130000e-02	1.24897000e-02
3.55564000e-02	-8.45248000e-03	1.28881000e-02
2.86209000e-02	8.60885000e-03	5.65974000e-03
2.92721000e-02	-1.15122000e-02	6.75323000e-03
2.24583000e-02	-2.89696000e-02	5.47668000e-03
6.11220000e-03	-2.41697000e-02	2.04705000e-03
1.37718000e-02	-7.28620000e-03	4.98518000e-03
2.93353000e-02	-2.70686000e-02	1.02025000e-02
2.61703000e-02	1.17712000e-02	1.64915000e-02
-1.09124000e-02	-3.42747000e-02	5.64530000e-03
3.49961000e-02	-9.19365000e-03	8.99854000e-03
3.25280000e-02	1.78306000e-03	1.81001000e-02
1.56313000e-02	-1.75830000e-02	1.81002000e-02
1.93913000e-02	-6.97620000e-03	1.27412000e-02
2.93336000e-02	-7.80234000e-03	2.00719000e-03
2.94935000e-02	-7.06011000e-03	1.12497000e-02
3.18022000e-02	-1.47910000e-02	1.33553000e-02
1.59625000e-03	-5.63637000e-03	1.78383000e-02
3.55069000e-02	-1.49823000e-03	8.97243000e-03
1.77056000e-02	-2.05870000e-02	2.02741000e-03
3.29891000e-02	-6.19564000e-03	2.23284000e-03
2.20251000e-02	-1.47688000e-02	1.99957000e-03
3.38132000e-02	1.25634000e-02	2.00384000e-03
2.38510000e-02	7.44561000e-03	7.86158000e-03
3.19309000e-02	-9.83141000e-03	4.27378000e-03
2.30710000e-02	-2.90605000e-02	1.80764000e-02
1.69781000e-02	-2.97522000e-02	1.19269000e-02
3.54090000e-02	-9.37900000e-03	2.29193000e-03
3.09237000e-02	1.20458000e-02	1.80996000e-02
3.54620000e-02	4.51279000e-03	2.09203000e-03
3.32575000e-02	-2.21603000e-02	1.00767000e-02
3.12782000e-02	-3.40459000e-03	9.24070000e-03
1.26611000e-02	-6.09605000e-03	1.23060000e-02
-5.11194000e-03	-3.95584000e-02	5.87720000e-03
1.04317000e-02	-3.09699000e-02	1.99978000e-03
1.37424000e-02	-2.11063000e-02	1.79769000e-02
1.93330000e-02	-3.49931000e-02	1.67389000e-02
2.92807000e-02	1.49946000e-02	1.47204000e-02
-1.05898000e-02	-2.74112000e-02	1.78674000e-02
1.72941000e-02	-3.26852000e-02	4.56178000e-03
6.47256000e-03	-3.94380000e-02	5.00227000e-03
1.03964000e-02	-8.54839000e-03	7.69941000e-03
3.23387000e-02	-1.71081000e-02	8.61159000e-03
2.96221000e-02	-1.65466000e-02	1.99984000e-03
2.97389000e-02	-2.23776000e-02	5.54573000e-03
-9.87844000e-03	-3.23343000e-02	8.99631000e-03
2.04560000e-02	-2.60342000e-02	1.81002000e-02
1.22390000e-02	-3.30107000e-04	1.46704000e-02
2.03072000e-02	-1.07905000e-02	1.19615000e-02
3.64174000e-02	1.45409000e-02	5.92192000e-03
1.01718000e-02	-3.53593000e-03	6.29649000e-03
5.96541000e-03	-3.68447000e-02	1.99975000e-03
3.17769000e-02	-2.27275000e-03	1.43227000e-02
2.93744000e-02	-2.09479000e-02	1.73171000e-02
3.43761000e-02	1.12854000e-02	1.62257000e-02
1.43822000e-02	-3.17116000e-02	1.99889000e-03
1.61536000e-02	-3.24901000e-02	1.47228000e-02
3.37656000e-02	-2.13353000e-02	6.19687000e-03
8.95329000e-03	-3.19790000e-02	7.46301000e-03
1.70038000e-02	-3.61972000e-02	2.67132000e-03
3.98538000e-02	-1.93269000e-03	1.09099000e-02
1.32222000e-02	-3.73118000e-02	1.99966000e-03
2.45148000e-02	-1.11108000e-02	8.88609000e-03
2.59923000e-02	1.00030000e-03	1.81004000e-02
1.26046000e-02	-3.11111000e-02	1.07482000e-02
2.91717000e-02	-3.27622000e-03	1.81003000e-02
3.43375000e-03	-3.97804000e-02	1.12744000e-02
2.53197000e-02	-3.09206000e-02	1.53272000e-02
1.10201000e-02	-2.17841000e-02	1.41206000e-02
1.92150000e-02	-1.91776000e-02	1.03569000e-02
2.52511000e-03	-3.98075000e-02	5.97164000e-03
2.33275000e-02	6.29519000e-03	2.00664000e-03
1.17573000e-02	4.17000000e-03	3.79728000e-03
1.26852000e-02	-2.76655000e-02	1.99997000e-03
-1.51644000e-03	-2.36445000e-02	8.09708000e-03
3.32894000e-03	-3.98526000e-02	2.01068000e-03
3.83911000e-02	1.08909000e-02	1.41354000e-02
3.04587000e-02	-1.48520000e-02	1.81003000e-02
3.22868000e-02	1.65547000e-03	2.00300000e-03
1.55226000e-02	-8.14387000e-03	9.35881000e-03
1.41570000e-02	-2.18085000e-02	5.96035000e-03
1.24127000e-02	-3.40294000e-02	4.59464000e-03
3.80132000e-02	-1.24179000e-02	1.80839000e-02
3.12987000e-02	-8.17887000e-03	7.86057000e-03
7.16715000e-03	-3.92798000e-02	8.93805000e-03
3.87130000e-02	8.53447000e-03	2.68588000e-03
1.49410000e-02	-2.46878000e-02	9.85398000e-03
2.72290000e-03	-3.28043000e-02	1.42979000e-02
5.82751000e-03	-2.80618000e-02	6.97927000e-03
2.00966000e-03	-3.65918000e-02	1.32254000e-02
-1.03983000e-02	-3.70725000e-02	2.00280000e-03
8.47745000e-03	-3.66977000e-03	1.78300000e-02
-4.78633000e-04	-3.84472000e-02	1.80948000e-02
2.56820000e-02	-1.26173000e-02	5.37235000e-03
3.84440000e-02	-1.10097000e-02	1.43450000e-02
2.17762000e-02	-1.18011000e-02	4.71823000e-03
9.12683000e-03	-2.22465000e-02	1.80283000e-02
3.91922000e-02	-7.64293000e-03	7.34311000e-03
2.06776000e-02	-4.27468000e-03	1.53954000e-02
1.40201000e-05	-3.99472000e-02	9.15310000e-03
1.30754000e-02	-3.44518000e-02	1.28960000e-02
-7.30757000e-03	-3.53221000e-02	1.14731000e-02
1.60614000e-02	-2.57755000e-02	1.76125000e-02
-1.46429000e-03	-3.99167000e-02	2.17678000e-03
3.70049000e-02	-4.55419000e-04	1.79734000e-02
3.44358000e-02	4.64127000e-03	1.45073000e-02
3.98912000e-02	-1.20798000e-03	1.48583000e-02
3.70960000e-02	-1.48263000e-02	7.82305000e-03
2.04595000e-02	-1.54702000e-02	5.61241000e-03
2.74029000e-02	-1.22752000e-02	1.79631000e-02
3.21435000e-02	4.42423000e-03	1.06303000e-02
1.59135000e-02	-1.89309000e-02	8.11232000e-03
1.09055000e-02	-2.39553000e-02	9.57856000e-03
3.94432000e-02	6.42344000e-03	1.81005000e-02
2.66034000e-02	-2.97425000e-02	1.13796000e-02
1.92183000e-02	-3.05930000e-02	7.37472000e-03
2.96811000e-02	-1.41630000e-02	1.00243000e-02
-4.61156000e-03	-2.44570000e-02	1.77371000e-02
3.95957000e-02	-5.27519000e-03	1.44968000e-02
1.61811000e-02	-2.81756000e-02	8.33905000e-03
1.78071000e-02	-1.71789000e-02	1.47176000e-02
3.02246000e-02	-2.61431000e-02	1.77749000e-02
1.42033000e-02	2.30587000e-03	7.22971000e-03
2.45977000e-02	-2.31798000e-02	1.47098000e-02
3.40717000e-02	1.35608000e-02	1.29501000e-02
3.59395000e-02	-2.90712000e-03	2.00223000e-03
3.86485000e-02	9.43604000e-03	6.58266000e-03
2.98451000e-02	-5.70924000e-03	1.49975000e-02
1.12806000e-02	2.72785000e-03	1.22612000e-02
3.18493000e-02	1.34307000e-02	5.78968000e-03
[...]
POINT_DATA 469
SCALARS Radius double 1
LOOKUP_TABLE default
2.00000000e-03
2.00000000e-03
2.00000000e-03
2.00000000e-03
2.00000000e-03
2.00000000e-03
2.00000000e-03
2.00000000e-03
2.00000000e-03
2.00000000e-03
2.00000000e-03
2.00000000e-03
2.00000000e-03
2.00000000e-03
2.00000000e-03
2.00000000e-03
2.00000000e-03
2.00000000e-03
2.00000000e-03
2.00000000e-03
2.00000000e-03
2.00000000e-03
2.00000000e-03
2.00000000e-03
2.00000000e-03
2.00000000e-03
2.00000000e-03
2.00000000e-03
2.00000000e-03
2.00000000e-03
2.00000000e-03
2.00000000e-03
2.00000000e-03
2.00000000e-03
2.00000000e-03
2.00000000e-03
2.00000000e-03
2.00000000e-03
2.00000000e-03
2.00000000e-03
2.00000000e-03
2.00000000e-03
2.00000000e-03
2.00000000e-03
2.00000000e-03
2.00000000e-03
2.00000000e-03
2.00000000e-03
2.00000000e-03
2.00000000e-03
2.00000000e-03
2.00000000e-03
2.00000000e-03
2.00000000e-03
2.00000000e-03
2.00000000e-03
2.00000000e-03
2.00000000e-03
2.00000000e-03
2.00000000e-03
2.00000000e-03
2.00000000e-03
2.00000000e-03
2.00000000e-03
2.00000000e-03
2.00000000e-03
2.00000000e-03
2.00000000e-03
2.00000000e-03
2.00000000e-03
2.00000000e-03
2.00000000e-03
2.00000000e-03
2.00000000e-03
2.00000000e-03
2.00000000e-03
2.00000000e-03
2.00000000e-03
2.00000000e-03
2.00000000e-03
2.00000000e-03
2.00000000e-03
2.00000000e-03
2.00000000e-03
2.00000000e-03
2.00000000e-03
2.00000000e-03
2.00000000e-03
2.00000000e-03
2.00000000e-03
2.00000000e-03
2.00000000e-03
2.00000000e-03
2.00000000e-03
2.00000000e-03
2.00000000e-03
2.00000000e-03
2.00000000e-03
2.00000000e-03
2.00000000e-03
2.00000000e-03
2.00000000e-03
2.00000000e-03
2.00000000e-03
2.00000000e-03
2.00000000e-03
2.00000000e-03
2.00000000e-03
2.00000000e-03
2.00000000e-03
2.00000000e-03
2.00000000e-03
2.00000000e-03
2.00000000e-03
2.00000000e-03
2.00000000e-03
2.00000000e-03
2.00000000e-03
2.00000000e-03
2.00000000e-03
2.00000000e-03
2.00000000e-03
2.00000000e-03
2.00000000e-03
2.00000000e-03
2.00000000e-03
2.00000000e-03
2.00000000e-03
2.00000000e-03
2.00000000e-03
2.00000000e-03
2.00000000e-03
2.00000000e-03
2.00000000e-03
2.00000000e-03
2.00000000e-03
2.00000000e-03
2.00000000e-03
2.00000000e-03
2.00000000e-03
2.00000000e-03
2.00000000e-03
2.00000000e-03
2.00000000e-03
2.00000000e-03
2.00000000e-03
2.00000000e-03
2.00000000e-03
2.00000000e-03
2.00000000e-03
2.00000000e-03
2.00000000e-03
2.00000000e-03
2.00000000e-03
2.00000000e-03
2.00000000e-03
2.00000000e-03
2.00000000e-03
2.00000000e-03
2.00000000e-03
2.00000000e-03
2.00000000e-03
2.00000000e-03
2.00000000e-03
2.00000000e-03
2.00000000e-03
2.00000000e-03
2.00000000e-03
2.00000000e-03
2.00000000e-03
2.00000000e-03
2.00000000e-03
2.00000000e-03
2.00000000e-03
2.00000000e-03
2.00000000e-03
2.00000000e-03
2.00000000e-03
2.00000000e-03
2.00000000e-03
2.00000000e-03
2.00000000e-03
2.00000000e-03
2.00000000e-03
2.00000000e-03
2.00000000e-03
2.00000000e-03
2.00000000e-03
2.00000000e-03
2.00000000e-03
2.00000000e-03
2.00000000e-03
2.00000000e-03
2.00000000e-03
2.00000000e-03
2.00000000e-03
2.00000000e-03
2.00000000e-03
2.00000000e-03
2.00000000e-03
2.00000000e-03
2.00000000e-03
2.00000000e-03
2.00000000e-03
2.00000000e-03
2.00000000e-03
2.00000000e-03
2.00000000e-03
2.00000000e-03
2.00000000e-03
2.00000000e-03
2.00000000e-03
2.00000000e-03
2.00000000e-03
2.00000000e-03
2.00000000e-03
2.00000000e-03
2.00000000e-03
2.00000000e-03
2.00000000e-03
2.00000000e-03
2.00000000e-03
2.00000000e-03
2.00000000e-03
2.00000000e-03
2.00000000e-03
2.00000000e-03
2.00000000e-03
2.00000000e-03
2.00000000e-03
2.00000000e-03
2.00000000e-03
2.00000000e-03
2.00000000e-03
2.00000000e-03
2.00000000e-03
2.00000000e-03
2.00000000e-03
2.00000000e-03
2.00000000e-03
2.00000000e-03
2.00000000e-03
2.00000000e-03
2.00000000e-03
2.00000000e-03
2.00000000e-03
2.00000000e-03
2.00000000e-03
2.00000000e-03
2.00000000e-03
2.00000000e-03
2.00000000e-03
2.00000000e-03
2.00000000e-03
2.00000000e-03
2.00000000e-03
2.00000000e-03
2.00000000e-03
2.00000000e-03
2.00000000e-03
2.00000000e-03
2.00000000e-03
2.00000000e-03
2.00000000e-03
2.00000000e-03
2.00000000e-03
2.00000000e-03
2.00000000e-03
2.00000000e-03
2.00000000e-03
2.00000000e-03
2.00000000e-03
2.00000000e-03
2.00000000e-03
2.00000000e-03
2.00000000e-03
2.00000000e-03
2.00000000e-03
2.00000000e-03
2.00000000e-03
2.00000000e-03
2.00000000e-03
2.00000000e-03
2.00000000e-03
2.00000000e-03
2.00000000e-03
2.00000000e-03
2.00000000e-03
2.00000000e-03
2.00000000e-03
2.00000000e-03
2.00000000e-03
2.00000000e-03
2.00000000e-03
2.00000000e-03
2.00000000e-03
2.00000000e-03
2.00000000e-03
2.00000000e-03
2.00000000e-03
2.00000000e-03
2.00000000e-03
2.00000000e-03
2.00000000e-03
2.00000000e-03
2.00000000e-03
2.00000000e-03
2.00000000e-03
2.00000000e-03
2.00000000e-03
2.00000000e-03
2.00000000e-03
2.00000000e-03
2.00000000e-03
2.00000000e-03
2.00000000e-03
2.00000000e-03
2.00000000e-03
2.00000000e-03
2.00000000e-03
2.00000000e-03
2.00000000e-03
2.00000000e-03
2.00000000e-03
2.00000000e-03
2.00000000e-03
2.00000000e-03
2.00000000e-03
2.00000000e-03
2.00000000e-03
2.00000000e-03
2.00000000e-03
2.00000000e-03
2.00000000e-03
2.00000000e-03
2.00000000e-03
2.00000000e-03
2.00000000e-03
2.00000000e-03
2.00000000e-03
2.00000000e-03
2.00000000e-03
2.00000000e-03
2.00000000e-03
2.00000000e-03
2.00000000e-03
2.00000000e-03
2.00000000e-03
2.00000000e-03
2.00000000e-03
2.00000000e-03
2.00000000e-03
2.00000000e-03
2.00000000e-03
2.00000000e-03
2.00000000e-03
2.00000000e-03
2.00000000e-03
2.00000000e-03
2.00000000e-03
2.00000000e-03
2.00000000e-03
2.00000000e-03
2.00000000e-03
2.00000000e-03
2.00000000e-03
2.00000000e-03
2.00000000e-03
2.00000000e-03
2.00000000e-03
2.00000000e-03
2.00000000e-03
2.00000000e-03
2.00000000e-03
2.00000000e-03
2.00000000e-03
2.00000000e-03
2.00000000e-03
2.00000000e-03
2.00000000e-03
2.00000000e-03
2.00000000e-03
2.00000000e-03
2.00000000e-03
2.00000000e-03
2.00000000e-03
2.00000000e-03
2.00000000e-03
2.00000000e-03
2.00000000e-03
2.00000000e-03
2.00000000e-03
2.00000000e-03
2.00000000e-03
2.00000000e-03
2.00000000e-03
2.00000000e-03
2.00000000e-03
2.00000000e-03
2.00000000e-03
2.00000000e-03
2.00000000e-03
2.00000000e-03
2.00000000e-03
2.00000000e-03
2.00000000e-03
2.00000000e-03
2.00000000e-03
2.00000000e-03
2.00000000e-03
2.00000000e-03
2.00000000e-03
2.00000000e-03
2.00000000e-03
2.00000000e-03
2.00000000e-03
2.00000000e-03
2.00000000e-03
2.00000000e-03
2.00000000e-03
2.00000000e-03
2.00000000e-03
2.00000000e-03
2.00000000e-03
2.00000000e-03
2.00000000e-03
2.00000000e-03
2.00000000e-03
2.00000000e-03
2.00000000e-03
2.00000000e-03
2.00000000e-03
2.00000000e-03
2.00000000e-03
2.00000000e-03
2.00000000e-03
2.00000000e-03
2.00000000e-03
2.00000000e-03
2.00000000e-03
2.00000000e-03
2.00000000e-03
2.00000000e-03
2.00000000e-03
2.00000000e-03
2.00000000e-03
2.00000000e-03
2.00000000e-03
2.00000000e-03
2.00000000e-03
2.00000000e-03
2.00000000e-03
2.00000000e-03
2.00000000e-03
2.00000000e-03
2.00000000e-03
2.00000000e-03
2.00000000e-03
2.00000000e-03
2.00000000e-03
2.00000000e-03
2.00000000e-03
2.00000000e-03
2.00000000e-03
2.00000000e-03
2.00000000e-03
2.00000000e-03
2.00000000e-03
2.00000000e-03
