# vtk DataFile Version 2.0
Particle data
ASCII
DATASET POLYDATA
POINTS 469 double
1.62433000e-03	-3.64838000e-02	1.45500000e-02
5.54635000e-03	-2.70587000e-02	1.31262000e-02
4.92914000e-03	-1.76174000e-02	5.83609000e-03
2.89426000e-02	-1.63158000e-02	9.63890000e-03
1.01373000e-02	-2.80968000e-02	2.36205000e-03
-7.32342000e-03	-3.60507000e-02	2.88881000e-03
-1.17820000e-02	-3.82094000e-02	1.80694000e-02
2.79927000e-02	-1.07355000e-02	1.81019000e-02
2.18440000e-02	1.41208000e-02	1.81000000e-02
3.74064000e-02	-7.51998000e-03	1.81008000e-02
5.11458000e-03	-3.62977000e-02	7.40834000e-03
-9.02925000e-05	-2.75313000e-02	1.80987000e-02
3.37880000e-02	1.75797000e-02	1.17615000e-02
8.09055000e-03	-2.24083000e-02	6.59550000e-03
8.84166000e-03	-3.35730000e-02	1.45878000e-02
3.76539000e-02	-1.32815000e-02	1.06104000e-02
2.45811000e-02	-1.13041000e-02	5.93355000e-03
7.83389000e-03	-1.08882000e-02	2.16779000e-03
2.56626000e-02	-1.03982000e-02	1.37765000e-02
-1.41148000e-03	-3.99379000e-02	4.83053000e-03
1.02031000e-02	-3.51688000e-02	1.99930000e-03
2.57085000e-02	1.47084000e-02	1.72516000e-02
3.41861000e-02	-2.07368000e-02	1.99942000e-03
3.81846000e-03	-2.11803000e-02	4.05351000e-03
9.69378000e-03	-1.53423000e-02	2.09788000e-03
3.61316000e-02	-6.80831000e-03	9.58405000e-03
1.89059000e-02	-3.52360000e-02	1.51103000e-02
7.22255000e-03	-1.77953000e-02	1.49915000e-02
2.72753000e-02	-2.44134000e-02	1.17489000e-02
2.56289000e-02	-6.75996000e-03	1.54385000e-02
1.05121000e-03	-2.73560000e-02	9.86175000e-03
9.67894000e-03	-8.58265000e-03	4.92727000e-03
-1.71552000e-03	-2.72631000e-02	6.89026000e-03
2.32462000e-02	7.64878000e-03	1.80983000e-02
3.97442000e-02	3.64605000e-03	1.04836000e-02
1.12230000e-02	-1.72722000e-02	1.23066000e-02
-1.07070000e-03	-3.99319000e-02	9.86823000e-03
2.57039000e-02	-3.05325000e-02	9.78567000e-03
-9.78833000e-04	-3.08044000e-02	1.31033000e-02
3.81939000e-03	-3.26373000e-02	4.50055000e-03
2.43914000e-02	-2.71805000e-02	1.15282000e-02
1.13205000e-03	-1.99354000e-02	1.62061000e-02
3.98802000e-02	2.77000000e-03	2.67264000e-03
3.81309000e-03	-3.62392000e-02	1.79586000e-02
2.87543000e-02	1.35277000e-03	1.46181000e-02
1.09055000e-02	-3.43315000e-02	1.12468000e-02
1.16718000e-02	-2.41092000e-02	9.46355000e-03
1.81122000e-02	-3.14820000e-02	1.39849000e-02
2.23138000e-02	-1.61847000e-02	1.05395000e-02
6.20057000e-03	-3.95054000e-02	1.81001000e-02
2.76196000e-02	-1.07931000e-02	1.99957000e-03
1.46986000e-02	-2.20849000e-02	7.28230000e-03
2.27382000e-02	-3.28012000e-02	1.17060000e-02
2.37730000e-02	-1.27651000e-02	1.99955000e-03
3.39066000e-02	-1.23834000e-02	1.17711000e-02
2.86156000e-02	-1.83377000e-02	1.50806000e-02
3.86670000e-02	-9.82059000e-03	8.88181000e-03
1.45979000e-02	-3.05111000e-02	1.81001000e-02
3.51965000e-02	6.29310000e-03	1.43259000e-02
3.24589000e-02	-1.50461000e-04	1.44520000e-02
3.46717000e-02	8.91430000e-03	1.75864000e-02
2.43326000e-02	4.49301000e-03	9.21153000e-03
1.84490000e-02	-1.51492000e-02	1.81007000e-02
3.19559000e-02	-1.89686000e-02	8.82804000e-03
1.95209000e-02	8.26185000e-03	5.29706000e-03
1.07904000e-02	-3.23804000e-02	5.60729000e-03
3.99090000e-02	-2.41128000e-03	3.19669000e-03
1.84019000e-03	-2.63133000e-02	1.46315000e-02
3.52150000e-02	-4.66136000e-03	6.33654000e-03
3.61227000e-02	1.50209000e-02	9.07061000e-03
2.38278000e-02	-2.65100000e-02	7.62116000e-03
2.80901000e-02	1.76172000e-02	2.00017000e-03
2.23508000e-03	-3.99162000e-02	1.77740000e-02
3.95669000e-03	-3.97707000e-02	1.41600000e-02
-6.47854000e-03	-2.40446000e-02	7.98934000e-03
2.36142000e-02	-2.50787000e-02	1.80983000e-02
2.15080000e-02	-1.45885000e-02	5.67067000e-03
-6.26501000e-03	-3.94903000e-02	6.19485000e-03
3.68258000e-02	1.46168000e-02	1.81001000e-02
3.69875000e-02	-1.51802000e-02	1.80994000e-02
1.71431000e-02	-2.98661000e-02	8.88294000e-03
2.52803000e-02	1.52718000e-03	5.72306000e-03
2.09512000e-02	-3.76135000e-03	2.00083000e-03
2.69894000e-02	2.22747000e-03	1.80998000e-02
3.23528000e-02	3.96679000e-03	2.00000000e-03
9.23784000e-03	-3.88999000e-02	3.06948000e-03
5.81799000e-03	-2.61299000e-02	1.80941000e-02
3.53990000e-02	-1.84624000e-02	1.07999000e-02
3.22343000e-02	1.00902000e-02	6.73053000e-03
3.21556000e-02	-3.50876000e-03	4.03235000e-03
1.56149000e-02	-3.68028000e-02	1.05865000e-02
7.43007000e-03	-3.43811000e-02	4.77151000e-03
2.33100000e-02	1.21778000e-02	6.86146000e-03
1.79131000e-02	-3.57586000e-02	2.65417000e-03
-2.45757000e-03	-2.72855000e-02	1.18927000e-02
1.70356000e-02	9.01061000e-03	8.94076000e-03
3.44516000e-02	-2.01908000e-02	5.95236000e-03
3.60088000e-02	-4.27549000e-03	1.26773000e-02
2.26392000e-02	3.69523000e-03	1.81001000e-02
-1.45621000e-03	-3.13571000e-02	9.08799000e-03
3.08072000e-02	-5.96110000e-03	6.91661000e-03
3.24261000e-02	-4.84499000e-03	1.09702000e-02
2.65108000e-02	-2.58086000e-02	1.54324000e-02
3.39995000e-02	1.72972000e-02	1.71910000e-02
3.21456000e-02	-2.17199000e-03	7.80087000e-03
1.18466000e-02	-3.81360000e-02	1.04494000e-02
1.91670000e-02	-1.17083000e-02	7.16099000e-03
2.66890000e-02	-7.02704000e-03	5.46378000e-03
3.62093000e-02	-3.41383000e-03	2.05462000e-03
5.41011000e-03	-2.90336000e-02	9.19096000e-03
3.55098000e-02	-1.01517000e-02	2.00375000e-03
1.35117000e-02	-3.46590000e-02	1.81004000e-02
1.92307000e-02	-2.58895000e-02	1.74062000e-02
3.04622000e-02	-1.39058000e-02	1.99774000e-03
3.11651000e-02	7.34609000e-03	1.42863000e-02
3.19805000e-02	-1.44960000e-05	2.09421000e-03
1.43455000e-02	-3.73176000e-02	1.52316000e-02
3.84428000e-02	-1.07516000e-02	4.99850000e-03
6.72789000e-03	-2.60320000e-02	5.59273000e-03
-3.61415000e-03	-2.44160000e-02	4.74121000e-03
1.31892000e-02	-3.06567000e-02	2.00021000e-03
2.53169000e-02	-4.01259000e-03	1.25427000e-02
-6.66464000e-03	-3.94054000e-02	1.70776000e-02
3.83881000e-02	9.21029000e-03	5.69823000e-03
3.18913000e-02	2.10296000e-02	1.80987000e-02
1.05892000e-02	-3.85196000e-02	1.42285000e-02
-9.75288000e-03	-3.49117000e-02	5.89357000e-03
-6.22916000e-03	-3.75569000e-02	1.23321000e-02
2.87424000e-02	-2.00976000e-02	1.09234000e-02
1.91041000e-02	-2.58519000e-02	1.99893000e-03
2.74418000e-02	-1.73047000e-02	1.99984000e-03
3.09290000e-02	1.77433000e-02	4.81987000e-03
1.07878000e-02	-3.17309000e-02	1.80881000e-02
-2.12809000e-03	-2.33486000e-02	8.30712000e-03
1.38511000e-02	-1.55857000e-02	3.85080000e-03
3.87766000e-02	8.89350000e-03	1.28744000e-02
1.42432000e-03	-2.47939000e-02	6.68912000e-03
-1.02164000e-02	-3.86634000e-02	1.99889000e-03
2.40936000e-02	-8.34370000e-03	1.04021000e-02
2.55516000e-02	-1.47013000e-02	1.54565000e-02
3.11610000e-02	3.62675000e-03	1.71860000e-02
6.77109000e-03	-3.93546000e-02	1.04824000e-02
1.76119000e-02	-2.10136000e-02	1.24458000e-02
2.25114000e-02	-3.30109000e-02	2.45365000e-03
-4.50307000e-03	-3.59329000e-02	5.72086000e-03
2.79419000e-03	-3.98798000e-02	2.55661000e-03
3.60208000e-02	-1.71836000e-02	1.99966000e-03
7.60577000e-04	-3.34870000e-02	2.06618000e-03
1.59386000e-02	-1.79753000e-02	1.04511000e-02
3.29265000e-02	-5.57268000e-03	1.48718000e-02
1.44556000e-02	-2.62726000e-02	1.80277000e-02
2.26549000e-02	-3.32613000e-03	8.89549000e-03
-7.16124000e-03	-3.61359000e-02	8.70211000e-03
1.43600000e-02	-3.01371000e-02	1.21792000e-02
2.57232000e-02	-1.43727000e-02	8.27684000e-03
3.16157000e-02	-1.44449000e-02	1.43209000e-02
-5.14319000e-03	-2.81891000e-02	5.00880000e-03
1.18517000e-02	-2.39800000e-02	5.18924000e-03
3.60664000e-02	1.54405000e-02	1.42587000e-02
6.81101000e-05	-3.02344000e-02	4.89463000e-03
1.71159000e-02	9.29306000e-05	1.09418000e-02
-4.42055000e-03	-3.97366000e-02	1.99999000e-03
3.57442000e-02	9.73475000e-03	8.86029000e-03
2.87265000e-02	-2.26443000e-02	1.81012000e-02
2.01106000e-02	-7.66704000e-03	2.27704000e-03
2.84972000e-03	-2.99126000e-02	1.23628000e-02
2.50102000e-02	-1.67246000e-02	5.12209000e-03
-1.03115000e-02	-3.85374000e-02	8.15014000e-03
3.13322000e-02	-1.93459000e-02	1.80448000e-02
3.62753000e-02	-1.66378000e-02	6.17118000e-03
-1.71910000e-02	-3.60871000e-02	1.63464000e-02
3.58705000e-02	-2.09095000e-03	9.32804000e-03
2.04016000e-02	-2.96489000e-02	1.81010000e-02
3.15029000e-03	-2.96065000e-02	1.70086000e-02
-2.66107000e-03	-3.99026000e-02	1.81005000e-02
-1.29720000e-02	-2.98046000e-02	1.50425000e-02
2.37963000e-02	1.73397000e-02	2.20397000e-03
3.02373000e-02	1.31866000e-02	1.80920000e-02
-1.33580000e-03	-2.35753000e-02	1.28822000e-02
1.53005000e-02	-1.00218000e-02	9.60331000e-03
2.64011000e-02	-2.46911000e-02	5.13200000e-03
3.01684000e-02	2.33577000e-03	5.19755000e-03
1.17112000e-02	-3.82310000e-02	1.81000000e-02
3.03276000e-02	-2.60351000e-02	1.39129000e-02
2.43394000e-02	8.75650000e-03	1.27806000e-02
-8.72621000e-03	-3.17307000e-02	1.34146000e-02
1.54810000e-02	-2.29162000e-02	2.00098000e-03
1.13095000e-02	-1.34024000e-02	1.41158000e-02
-1.93696000e-04	-3.67548000e-02	1.81010000e-02
-5.68829000e-04	-2.44857000e-02	2.06504000e-03
3.49400000e-02	-1.27089000e-02	1.57121000e-02
2.44268000e-02	5.39045000e-03	1.49399000e-02
3.42469000e-02	-2.06320000e-02	1.46990000e-02
2.30095000e-02	-3.26788000e-02	1.80120000e-02
8.38321000e-03	-2.45016000e-02	2.28900000e-03
2.54830000e-02	-1.76032000e-02	1.27047000e-02
2.74201000e-02	1.05507000e-02	1.09661000e-02
2.82750000e-02	-7.98149000e-03	9.38047000e-03
2.07487000e-02	-1.83602000e-02	6.76401000e-03
3.58326000e-02	-3.84416000e-03	1.80963000e-02
1.46380000e-02	-3.34017000e-02	1.44737000e-02
1.64893000e-02	-2.79825000e-02	1.50387000e-02
3.52946000e-02	-1.88039000e-02	1.81000000e-02
3.07517000e-02	2.02251000e-02	1.09715000e-02
3.52286000e-02	-8.83590000e-03	1.46472000e-02
1.92776000e-02	-2.67286000e-02	7.61907000e-03
2.31267000e-02	-2.42666000e-02	1.39584000e-02
2.51726000e-02	-2.98249000e-02	5.82949000e-03
5.58428000e-03	-2.15894000e-02	1.45234000e-02
2.45759000e-02	-2.14787000e-02	1.14387000e-02
3.95239000e-02	5.18365000e-03	1.41693000e-02
2.82271000e-02	-2.70241000e-03	2.03296000e-03
3.65534000e-02	9.47802000e-04	1.18735000e-02
3.23641000e-02	3.66872000e-03	1.32686000e-02
1.10602000e-02	-2.43442000e-02	1.54192000e-02
[...]
POINT_DATA 469
SCALARS Radius double 1
LOOKUP_TABLE default
2.00000000e-03
2.00000000e-03
2.00000000e-03
2.00000000e-03
2.00000000e-03
2.00000000e-03
2.00000000e-03
2.00000000e-03
2.00000000e-03
2.00000000e-03
2.00000000e-03
2.00000000e-03
2.00000000e-03
2.00000000e-03
2.00000000e-03
2.00000000e-03
2.00000000e-03
2.00000000e-03
2.00000000e-03
2.00000000e-03
2.00000000e-03
2.00000000e-03
2.00000000e-03
2.00000000e-03
2.00000000e-03
2.00000000e-03
2.00000000e-03
2.00000000e-03
2.00000000e-03
2.00000000e-03
2.00000000e-03
2.00000000e-03
2.00000000e-03
2.00000000e-03
2.00000000e-03
2.00000000e-03
2.00000000e-03
2.00000000e-03
2.00000000e-03
2.00000000e-03
2.00000000e-03
2.00000000e-03
2.00000000e-03
2.00000000e-03
2.00000000e-03
2.00000000e-03
2.00000000e-03
2.00000000e-03
2.00000000e-03
2.00000000e-03
2.00000000e-03
2.00000000e-03
2.00000000e-03
2.00000000e-03
2.00000000e-03
2.00000000e-03
2.00000000e-03
2.00000000e-03
2.00000000e-03
2.00000000e-03
2.00000000e-03
2.00000000e-03
2.00000000e-03
2.00000000e-03
2.00000000e-03
2.00000000e-03
2.00000000e-03
2.00000000e-03
2.00000000e-03
2.00000000e-03
2.00000000e-03
2.00000000e-03
2.00000000e-03
2.00000000e-03
2.00000000e-03
2.00000000e-03
2.00000000e-03
2.00000000e-03
2.00000000e-03
2.00000000e-03
2.00000000e-03
2.00000000e-03
2.00000000e-03
2.00000000e-03
2.00000000e-03
2.00000000e-03
2.00000000e-03
2.00000000e-03
2.00000000e-03
2.00000000e-03
2.00000000e-03
2.00000000e-03
2.00000000e-03
2.00000000e-03
2.00000000e-03
2.00000000e-03
2.00000000e-03
2.00000000e-03
2.00000000e-03
2.00000000e-03
2.00000000e-03
2.00000000e-03
2.00000000e-03
2.00000000e-03
2.00000000e-03
2.00000000e-03
2.00000000e-03
2.00000000e-03
2.00000000e-03
2.00000000e-03
2.00000000e-03
2.00000000e-03
2.00000000e-03
2.00000000e-03
2.00000000e-03
2.00000000e-03
2.00000000e-03
2.00000000e-03
2.00000000e-03
2.00000000e-03
2.00000000e-03
2.00000000e-03
2.00000000e-03
2.00000000e-03
2.00000000e-03
2.00000000e-03
2.00000000e-03
2.00000000e-03
2.00000000e-03
2.00000000e-03
2.00000000e-03
2.00000000e-03
2.00000000e-03
2.00000000e-03
2.00000000e-03
2.00000000e-03
2.00000000e-03
2.00000000e-03
2.00000000e-03
2.00000000e-03
2.00000000e-03
2.00000000e-03
2.00000000e-03
2.00000000e-03
2.00000000e-03
2.00000000e-03
2.00000000e-03
2.00000000e-03
2.00000000e-03
2.00000000e-03
2.00000000e-03
2.00000000e-03
2.00000000e-03
2.00000000e-03
2.00000000e-03
2.00000000e-03
2.00000000e-03
2.00000000e-03
2.00000000e-03
2.00000000e-03
2.00000000e-03
2.00000000e-03
2.00000000e-03
2.00000000e-03
2.00000000e-03
2.00000000e-03
2.00000000e-03
2.00000000e-03
2.00000000e-03
2.00000000e-03
2.00000000e-03
2.00000000e-03
2.00000000e-03
2.00000000e-03
2.00000000e-03
2.00000000e-03
2.00000000e-03
2.00000000e-03
2.00000000e-03
2.00000000e-03
2.00000000e-03
2.00000000e-03
2.00000000e-03
2.00000000e-03
2.00000000e-03
2.00000000e-03
2.00000000e-03
2.00000000e-03
2.00000000e-03
2.00000000e-03
2.00000000e-03
2.00000000e-03
2.00000000e-03
2.00000000e-03
2.00000000e-03
2.00000000e-03
2.00000000e-03
2.00000000e-03
2.00000000e-03
2.00000000e-03
2.00000000e-03
2.00000000e-03
2.00000000e-03
2.00000000e-03
2.00000000e-03
2.00000000e-03
2.00000000e-03
2.00000000e-03
2.00000000e-03
2.00000000e-03
2.00000000e-03
2.00000000e-03
2.00000000e-03
2.00000000e-03
2.00000000e-03
2.00000000e-03
2.00000000e-03
2.00000000e-03
2.00000000e-03
2.00000000e-03
2.00000000e-03
2.00000000e-03
2.00000000e-03
2.00000000e-03
2.00000000e-03
2.00000000e-03
2.00000000e-03
2.00000000e-03
2.00000000e-03
2.00000000e-03
2.00000000e-03
2.00000000e-03
2.00000000e-03
2.00000000e-03
2.00000000e-03
2.00000000e-03
2.00000000e-03
2.00000000e-03
2.00000000e-03
2.00000000e-03
2.00000000e-03
2.00000000e-03
2.00000000e-03
2.00000000e-03
2.00000000e-03
2.00000000e-03
2.00000000e-03
2.00000000e-03
2.00000000e-03
2.00000000e-03
2.00000000e-03
2.00000000e-03
2.00000000e-03
2.00000000e-03
2.00000000e-03
2.00000000e-03
2.00000000e-03
2.00000000e-03
2.00000000e-03
2.00000000e-03
2.00000000e-03
2.00000000e-03
2.00000000e-03
2.00000000e-03
2.00000000e-03
2.00000000e-03
2.00000000e-03
2.00000000e-03
2.00000000e-03
2.00000000e-03
2.00000000e-03
2.00000000e-03
2.00000000e-03
2.00000000e-03
2.00000000e-03
2.00000000e-03
2.00000000e-03
2.00000000e-03
2.00000000e-03
2.00000000e-03
2.00000000e-03
2.00000000e-03
2.00000000e-03
2.00000000e-03
2.00000000e-03
2.00000000e-03
2.00000000e-03
2.00000000e-03
2.00000000e-03
2.00000000e-03
2.00000000e-03
2.00000000e-03
2.00000000e-03
2.00000000e-03
2.00000000e-03
2.00000000e-03
2.00000000e-03
2.00000000e-03
2.00000000e-03
2.00000000e-03
2.00000000e-03
2.00000000e-03
2.00000000e-03
2.00000000e-03
2.00000000e-03
2.00000000e-03
2.00000000e-03
2.00000000e-03
2.00000000e-03
2.00000000e-03
2.00000000e-03
2.00000000e-03
2.00000000e-03
2.00000000e-03
2.00000000e-03
2.00000000e-03
2.00000000e-03
2.00000000e-03
2.00000000e-03
2.00000000e-03
2.00000000e-03
2.00000000e-03
2.00000000e-03
2.00000000e-03
2.00000000e-03
2.00000000e-03
2.00000000e-03
2.00000000e-03
2.00000000e-03
2.00000000e-03
2.00000000e-03
2.00000000e-03
2.00000000e-03
2.00000000e-03
2.00000000e-03
2.00000000e-03
2.00000000e-03
2.00000000e-03
2.00000000e-03
2.00000000e-03
2.00000000e-03
2.00000000e-03
2.00000000e-03
2.00000000e-03
2.00000000e-03
2.00000000e-03
2.00000000e-03
2.00000000e-03
2.00000000e-03
2.00000000e-03
2.00000000e-03
2.00000000e-03
2.00000000e-03
2.00000000e-03
2.00000000e-03
2.00000000e-03
2.00000000e-03
2.00000000e-03
2.00000000e-03
2.00000000e-03
2.00000000e-03
2.00000000e-03
2.00000000e-03
2.00000000e-03
2.00000000e-03
2.00000000e-03
2.00000000e-03
2.00000000e-03
2.00000000e-03
2.00000000e-03
2.00000000e-03
2.00000000e-03
2.00000000e-03
2.00000000e-03
2.00000000e-03
2.00000000e-03
2.00000000e-03
2.00000000e-03
2.00000000e-03
2.00000000e-03
2.00000000e-03
2.00000000e-03
2.00000000e-03
2.00000000e-03
2.00000000e-03
2.00000000e-03
2.00000000e-03
2.00000000e-03
2.00000000e-03
2.00000000e-03
2.00000000e-03
2.00000000e-03
2.00000000e-03
2.00000000e-03
2.00000000e-03
2.00000000e-03
2.00000000e-03
2.00000000e-03
2.00000000e-03
2.00000000e-03
2.00000000e-03
2.00000000e-03
2.00000000e-03
2.00000000e-03
2.00000000e-03
2.00000000e-03
2.00000000e-03
2.00000000e-03
2.00000000e-03
2.00000000e-03
2.00000000e-03
2.00000000e-03
2.00000000e-03
2.00000000e-03
2.00000000e-03
2.00000000e-03
2.00000000e-03
2.00000000e-03
2.00000000e-03
2.00000000e-03
2.00000000e-03
2.00000000e-03
2.00000000e-03
2.00000000e-03
2.00000000e-03
2.00000000e-03
2.00000000e-03
2.00000000e-03
2.00000000e-03
2.00000000e-03
2.00000000e-03
2.00000000e-03
2.00000000e-03
2.00000000e-03
2.00000000e-03
2.00000000e-03
2.00000000e-03
2.00000000e-03
2.00000000e-03
2.00000000e-03
2.00000000e-03
2.00000000e-03
2.00000000e-03
2.00000000e-03
2.00000000e-03
2.00000000e-03
2.00000000e-03
2.00000000e-03
2.00000000e-03
2.00000000e-03
2.00000000e-03
2.00000000e-03
2.00000000e-03
2.00000000e-03
2.00000000e-03
2.00000000e-03
2.00000000e-03
2.00000000e-03
2.00000000e-03
2.00000000e-03
2.00000000e-03
2.00000000e-03
2.00000000e-03
2.00000000e-03
2.00000000e-03
2.00000000e-03
2.00000000e-03
2.00000000e-03
2.00000000e-03
