# vtk DataFile Version 2.0
Particle data
ASCII
DATASET POLYDATA
POINTS 469 double
-1.71449000e-03	-3.44294000e-02	9.03919000e-03
2.15601000e-02	1.68062000e-03	1.41368000e-02
3.08837000e-02	1.01621000e-02	1.99959000e-03
3.53774000e-02	-1.86321000e-02	1.79146000e-02
2.95393000e-02	9.78918000e-03	5.74788000e-03
-1.42166000e-03	-3.99563000e-02	2.46299000e-03
-2.18538000e-03	-3.13361000e-02	1.21895000e-02
1.78428000e-02	-2.34249000e-02	1.76490000e-02
2.04379000e-02	1.40726000e-02	1.70248000e-02
3.64540000e-02	-3.12124000e-03	1.08221000e-02
3.07275000e-03	-3.98726000e-02	1.78262000e-02
6.27977000e-03	-1.96132000e-02	1.76831000e-02
1.63338000e-02	7.93535000e-03	1.41598000e-02
3.66680000e-02	1.57104000e-02	2.13317000e-03
1.46934000e-03	-3.99106000e-02	1.41584000e-02
3.10302000e-02	-1.33633000e-02	1.22582000e-02
3.02198000e-02	-2.07999000e-02	1.42138000e-02
2.04103000e-02	6.15826000e-03	2.00152000e-03
1.95497000e-02	-2.53629000e-02	1.40519000e-02
7.06609000e-03	-3.73392000e-02	1.09772000e-02
1.12046000e-02	-3.47804000e-02	2.00276000e-03
2.26970000e-02	6.64948000e-03	1.80894000e-02
3.48328000e-02	-1.38347000e-02	1.11135000e-02
1.50144000e-02	-1.66094000e-02	2.03535000e-03
2.88651000e-02	1.44332000e-04	2.00015000e-03
3.72471000e-02	-6.25310000e-03	1.45351000e-02
1.98630000e-02	-3.46785000e-02	1.44317000e-02
1.11997000e-02	-1.29651000e-02	1.37806000e-02
3.10444000e-02	-2.51856000e-02	1.70726000e-02
1.48497000e-02	-1.53726000e-02	1.42116000e-02
2.10081000e-02	6.71255000e-03	1.44029000e-02
-5.04014000e-03	-3.31812000e-02	2.10100000e-03
1.64551000e-02	-3.59809000e-03	9.67221000e-03
2.48627000e-02	-1.01747000e-03	1.74180000e-02
2.71985000e-02	-8.10584000e-03	9.22763000e-03
3.61219000e-02	1.42617000e-02	1.18077000e-02
-1.06932000e-03	-3.76718000e-02	5.72914000e-03
2.25381000e-02	-2.82338000e-02	9.22032000e-03
1.14896000e-02	-1.74263000e-02	1.00309000e-02
2.57849000e-02	-7.16497000e-03	2.40106000e-03
1.94511000e-02	-3.06664000e-02	8.03158000e-03
7.99884000e-03	4.59419000e-03	1.42288000e-02
3.23338000e-02	2.15060000e-03	2.00004000e-03
8.52091000e-03	-2.02290000e-02	1.26490000e-02
3.52476000e-02	-9.19503000e-03	1.26910000e-02
1.19691000e-02	-3.39166000e-02	1.07473000e-02
1.00675000e-02	-2.77979000e-02	1.40185000e-02
8.30616000e-03	-2.82982000e-02	6.06059000e-03
1.49206000e-02	-1.87790000e-02	1.21167000e-02
1.11452000e-03	-2.72954000e-02	1.67306000e-02
1.99923000e-02	-9.07503000e-04	1.00043000e-02
1.98236000e-02	1.43626000e-03	1.99961000e-03
3.39591000e-02	-1.20319000e-02	1.52226000e-02
1.89067000e-02	-2.20791000e-02	7.93220000e-03
3.84372000e-02	-1.07351000e-02	5.09511000e-03
2.91746000e-02	-2.73002000e-02	1.42382000e-02
3.54935000e-02	-6.62491000e-03	9.15162000e-03
1.08320000e-02	-3.15901000e-02	1.50330000e-02
3.98729000e-02	-3.10989000e-03	1.42354000e-02
3.66276000e-02	-1.17558000e-03	1.77929000e-02
3.78975000e-02	1.25977000e-02	1.68467000e-02
2.19529000e-02	-1.44877000e-02	1.13851000e-02
5.23841000e-03	-2.73840000e-02	1.80994000e-02
2.90855000e-02	-2.22534000e-02	9.97690000e-03
3.36058000e-02	1.85920000e-02	3.74999000e-03
1.01079000e-02	-3.86715000e-02	6.80613000e-03
3.45317000e-02	2.15788000e-03	5.34624000e-03
2.58653000e-02	1.03428000e-02	1.56186000e-02
3.94820000e-02	-5.73582000e-03	1.12435000e-02
3.45136000e-02	7.81917000e-03	1.02973000e-02
2.16833000e-02	-3.35279000e-02	6.35038000e-03
1.99487000e-02	1.20461000e-02	1.99780000e-03
1.21872000e-03	-3.42277000e-02	1.80995000e-02
1.64700000e-02	-3.32916000e-02	8.54037000e-03
-1.02752000e-03	-2.84777000e-02	8.17919000e-03
1.82758000e-02	-3.45402000e-02	1.81003000e-02
2.09004000e-02	-2.61313000e-02	5.71890000e-03
1.55366000e-02	-1.27342000e-02	2.87562000e-03
2.67594000e-02	9.21109000e-03	2.79359000e-03
1.58426000e-02	-1.98453000e-02	1.81017000e-02
1.10322000e-02	-3.11574000e-02	5.43261000e-03
2.47341000e-02	-6.45397000e-03	6.45922000e-03
3.59290000e-02	3.93856000e-04	2.03961000e-03
3.65486000e-02	8.93117000e-03	1.77024000e-02
2.77348000e-02	-3.69204000e-03	2.03757000e-03
1.02320000e-02	-3.86595000e-02	1.99992000e-03
-5.82607000e-03	-3.16061000e-02	1.05022000e-02
3.22207000e-02	-1.71148000e-02	1.29674000e-02
3.01014000e-02	2.30975000e-03	5.31553000e-03
2.52568000e-02	-1.90298000e-02	6.68883000e-03
1.39937000e-02	-3.40343000e-02	5.48853000e-03
2.04293000e-02	3.72392000e-03	5.22792000e-03
2.46424000e-02	3.11062000e-03	8.35109000e-03
2.12053000e-02	-3.37988000e-02	1.03301000e-02
3.24475000e-02	9.54964000e-03	1.81003000e-02
1.26918000e-02	-2.01848000e-03	3.78561000e-03
3.17474000e-02	-1.77813000e-02	8.94013000e-03
3.16486000e-02	-6.63241000e-03	1.81010000e-02
1.01571000e-02	-2.10883000e-02	1.81005000e-02
1.95416000e-02	-1.01542000e-02	1.36057000e-02
2.67008000e-02	-1.50944000e-02	1.99923000e-03
2.68802000e-02	-1.45272000e-02	1.11276000e-02
2.67971000e-02	-2.26236000e-02	1.32367000e-02
2.27899000e-02	1.09718000e-02	1.80996000e-02
3.44116000e-02	-1.04712000e-02	8.99361000e-03
1.11291000e-02	-2.42398000e-02	2.00293000e-03
3.05856000e-02	-1.41514000e-02	2.11772000e-03
1.73091000e-02	-1.98846000e-02	1.99908000e-03
3.56778000e-02	4.38517000e-03	2.00057000e-03
2.84810000e-02	2.15518000e-03	8.96940000e-03
2.83088000e-02	-1.79372000e-02	4.30638000e-03
1.42847000e-02	-3.42781000e-02	1.81005000e-02
8.33067000e-03	-3.30667000e-02	1.21742000e-02
3.16549000e-02	-1.85649000e-02	2.13631000e-03
3.34751000e-02	4.77289000e-03	1.81003000e-02
3.58742000e-02	-3.60473000e-03	1.99973000e-03
2.59383000e-02	-3.03981000e-02	1.00370000e-02
2.94828000e-02	-1.14125000e-02	9.12506000e-03
2.67509000e-02	1.39855000e-02	1.41476000e-02
1.34412000e-02	3.81727000e-03	8.39398000e-03
1.63620000e-03	-3.26403000e-02	2.05875000e-03
7.66958000e-03	-2.42142000e-02	1.79159000e-02
8.98595000e-03	-3.89608000e-02	1.65504000e-02
3.39732000e-02	7.69426000e-03	1.49026000e-02
1.69533000e-02	1.59348000e-02	1.80071000e-02
7.83767000e-03	-3.62257000e-02	4.47288000e-03
-4.44668000e-03	-3.97100000e-02	5.06777000e-03
2.61471000e-02	1.09119000e-02	1.16553000e-02
2.67270000e-02	-2.50486000e-02	8.35021000e-03
2.42180000e-02	-2.37511000e-02	1.99958000e-03
2.26238000e-02	-2.97336000e-02	5.51429000e-03
1.78546000e-02	1.70654000e-02	8.38689000e-03
1.29234000e-02	-3.01026000e-02	1.81005000e-02
2.86902000e-02	1.77297000e-02	1.44942000e-02
1.78933000e-02	-1.32637000e-02	1.17072000e-02
3.88954000e-02	5.85229000e-03	5.78835000e-03
2.55532000e-02	1.35405000e-02	5.96617000e-03
-4.18305000e-03	-3.70866000e-02	2.00210000e-03
3.06556000e-02	-9.92569000e-03	1.42664000e-02
2.28374000e-02	-2.79174000e-02	1.73222000e-02
3.61022000e-02	2.88101000e-03	1.57518000e-02
5.44595000e-03	-3.41812000e-02	1.99952000e-03
6.71440000e-03	-3.57226000e-02	1.46905000e-02
2.66326000e-02	-2.97695000e-02	6.14851000e-03
1.89287000e-03	-3.24473000e-02	8.27647000e-03
6.37494000e-03	-3.94847000e-02	2.67654000e-03
3.81718000e-02	-1.17212000e-02	1.04951000e-02
2.45382000e-03	-3.90839000e-02	1.99960000e-03
2.08446000e-02	-1.73780000e-02	8.85155000e-03
2.64925000e-02	-4.60619000e-03	1.81005000e-02
7.07495000e-03	-2.93094000e-02	1.16162000e-02
2.73095000e-02	-1.09162000e-02	1.81009000e-02
-7.57711000e-03	-3.91864000e-02	1.16599000e-02
1.58255000e-02	-3.66953000e-02	1.53116000e-02
1.40341000e-02	-1.21144000e-02	1.04613000e-02
1.49735000e-02	-2.24418000e-02	1.05125000e-02
-8.19781000e-03	-3.90379000e-02	6.28409000e-03
2.78556000e-02	4.01025000e-03	2.18340000e-03
2.94634000e-02	1.95106000e-02	2.07567000e-03
5.57169000e-03	-2.90843000e-02	2.44173000e-03
1.99450000e-02	1.17248000e-02	7.14320000e-03
-7.53229000e-03	-3.92727000e-02	2.00855000e-03
3.99078000e-02	9.51896000e-04	1.41061000e-02
2.53313000e-02	-2.23873000e-02	1.81008000e-02
3.21809000e-02	-5.56104000e-03	1.99915000e-03
2.16964000e-02	-2.15798000e-03	1.52559000e-02
1.32970000e-02	-1.73208000e-02	6.17601000e-03
2.71129000e-03	-3.55601000e-02	4.59870000e-03
3.33434000e-02	-2.20766000e-02	1.80975000e-02
2.84546000e-02	-1.57825000e-02	7.67241000e-03
-2.86895000e-03	-3.98122000e-02	8.97554000e-03
3.97157000e-02	-7.75688000e-04	2.58384000e-03
1.07269000e-02	-2.60267000e-02	1.04935000e-02
-5.57285000e-03	-3.27972000e-02	1.54827000e-02
1.38731000e-02	-9.16836000e-03	3.77516000e-03
-7.59541000e-03	-3.60844000e-02	1.43200000e-02
7.21953000e-03	-1.43044000e-02	8.46324000e-03
2.45896000e-02	1.75552000e-02	1.80585000e-02
-1.04054000e-02	-3.61749000e-02	1.80973000e-02
2.14867000e-02	-1.91362000e-02	5.31983000e-03
3.42159000e-02	-2.06710000e-02	1.43321000e-02
1.80662000e-02	-1.71040000e-02	5.74919000e-03
1.05499000e-02	-1.46465000e-02	1.79059000e-02
3.57707000e-02	-1.76794000e-02	7.13015000e-03
2.11850000e-02	-7.39295000e-03	1.59860000e-02
-1.09161000e-02	-3.84264000e-02	9.59289000e-03
3.16996000e-03	-3.65121000e-02	1.25245000e-02
1.76279000e-02	9.66524000e-03	1.02096000e-02
8.68605000e-03	-2.93698000e-02	1.76544000e-02
3.65961000e-03	-2.55365000e-02	2.50647000e-03
3.53394000e-02	-9.34789000e-03	1.80621000e-02
3.43112000e-02	-3.53910000e-03	1.46149000e-02
3.87340000e-02	-9.96520000e-03	1.44939000e-02
3.18333000e-02	-2.41947000e-02	7.81391000e-03
1.58008000e-02	-2.03984000e-02	5.66692000e-03
2.30751000e-02	-1.90911000e-02	1.79026000e-02
3.15129000e-02	-2.72635000e-03	1.06509000e-02
1.58632000e-02	-1.17689000e-02	6.74458000e-03
9.85059000e-03	-2.23800000e-02	9.10410000e-03
3.97673000e-02	-4.14178000e-03	1.80996000e-02
1.75155000e-02	-3.58650000e-02	1.14182000e-02
1.03654000e-02	-3.46974000e-02	7.16793000e-03
2.48759000e-02	-2.16083000e-02	9.87871000e-03
2.15857000e-02	2.01605000e-02	1.76238000e-02
3.74384000e-02	-1.38090000e-02	1.43651000e-02
8.43247000e-03	-3.14579000e-02	8.51271000e-03
1.26767000e-02	-1.99012000e-02	1.52309000e-02
2.15783000e-02	-3.24248000e-02	1.73149000e-02
2.85004000e-02	1.67899000e-02	5.33173000e-03
1.78138000e-02	-2.89213000e-02	1.46199000e-02
3.66307000e-02	5.55010000e-03	1.28208000e-02
3.45243000e-02	-1.07724000e-02	1.99938000e-03
3.99734000e-02	5.67898000e-04	6.34252000e-03
2.75264000e-02	-1.32517000e-02	1.48621000e-02
2.81505000e-02	1.81304000e-02	1.05517000e-02
3.46378000e-02	6.22360000e-03	5.39726000e-03
[...]
POINT_DATA 469
SCALARS Radius double 1
LOOKUP_TABLE default
2.00000000e-03
2.00000000e-03
2.00000000e-03
2.00000000e-03
2.00000000e-03
2.00000000e-03
2.00000000e-03
2.00000000e-03
2.00000000e-03
2.00000000e-03
2.00000000e-03
2.00000000e-03
2.00000000e-03
2.00000000e-03
2.00000000e-03
2.00000000e-03
2.00000000e-03
2.00000000e-03
2.00000000e-03
2.00000000e-03
2.00000000e-03
2.00000000e-03
2.00000000e-03
2.00000000e-03
2.00000000e-03
2.00000000e-03
2.00000000e-03
2.00000000e-03
2.00000000e-03
2.00000000e-03
2.00000000e-03
2.00000000e-03
2.00000000e-03
2.00000000e-03
2.00000000e-03
2.00000000e-03
2.00000000e-03
2.00000000e-03
2.00000000e-03
2.00000000e-03
2.00000000e-03
2.00000000e-03
2.00000000e-03
2.00000000e-03
2.00000000e-03
2.00000000e-03
2.00000000e-03
2.00000000e-03
2.00000000e-03
2.00000000e-03
2.00000000e-03
2.00000000e-03
2.00000000e-03
2.00000000e-03
2.00000000e-03
2.00000000e-03
2.00000000e-03
2.00000000e-03
2.00000000e-03
2.00000000e-03
2.00000000e-03
2.00000000e-03
2.00000000e-03
2.00000000e-03
2.00000000e-03
2.00000000e-03
2.00000000e-03
2.00000000e-03
2.00000000e-03
2.00000000e-03
2.00000000e-03
2.00000000e-03
2.00000000e-03
2.00000000e-03
2.00000000e-03
2.00000000e-03
2.00000000e-03
2.00000000e-03
2.00000000e-03
2.00000000e-03
2.00000000e-03
2.00000000e-03
2.00000000e-03
2.00000000e-03
2.00000000e-03
2.00000000e-03
2.00000000e-03
2.00000000e-03
2.00000000e-03
2.00000000e-03
2.00000000e-03
2.00000000e-03
2.00000000e-03
2.00000000e-03
2.00000000e-03
2.00000000e-03
2.00000000e-03
2.00000000e-03
2.00000000e-03
2.00000000e-03
2.00000000e-03
2.00000000e-03
2.00000000e-03
2.00000000e-03
2.00000000e-03
2.00000000e-03
2.00000000e-03
2.00000000e-03
2.00000000e-03
2.00000000e-03
2.00000000e-03
2.00000000e-03
2.00000000e-03
2.00000000e-03
2.00000000e-03
2.00000000e-03
2.00000000e-03
2.00000000e-03
2.00000000e-03
2.00000000e-03
2.00000000e-03
2.00000000e-03
2.00000000e-03
2.00000000e-03
2.00000000e-03
2.00000000e-03
2.00000000e-03
2.00000000e-03
2.00000000e-03
2.00000000e-03
2.00000000e-03
2.00000000e-03
2.00000000e-03
2.00000000e-03
2.00000000e-03
2.00000000e-03
2.00000000e-03
2.00000000e-03
2.00000000e-03
2.00000000e-03
2.00000000e-03
2.00000000e-03
2.00000000e-03
2.00000000e-03
2.00000000e-03
2.00000000e-03
2.00000000e-03
2.00000000e-03
2.00000000e-03
2.00000000e-03
2.00000000e-03
2.00000000e-03
2.00000000e-03
2.00000000e-03
2.00000000e-03
2.00000000e-03
2.00000000e-03
2.00000000e-03
2.00000000e-03
2.00000000e-03
2.00000000e-03
2.00000000e-03
2.00000000e-03
2.00000000e-03
2.00000000e-03
2.00000000e-03
2.00000000e-03
2.00000000e-03
2.00000000e-03
2.00000000e-03
2.00000000e-03
2.00000000e-03
2.00000000e-03
2.00000000e-03
2.00000000e-03
2.00000000e-03
2.00000000e-03
2.00000000e-03
2.00000000e-03
2.00000000e-03
2.00000000e-03
2.00000000e-03
2.00000000e-03
2.00000000e-03
2.00000000e-03
2.00000000e-03
2.00000000e-03
2.00000000e-03
2.00000000e-03
2.00000000e-03
2.00000000e-03
2.00000000e-03
2.00000000e-03
2.00000000e-03
2.00000000e-03
2.00000000e-03
2.00000000e-03
2.00000000e-03
2.00000000e-03
2.00000000e-03
2.00000000e-03
2.00000000e-03
2.00000000e-03
2.00000000e-03
2.00000000e-03
2.00000000e-03
2.00000000e-03
2.00000000e-03
2.00000000e-03
2.00000000e-03
2.00000000e-03
2.00000000e-03
2.00000000e-03
2.00000000e-03
2.00000000e-03
2.00000000e-03
2.00000000e-03
2.00000000e-03
2.00000000e-03
2.00000000e-03
2.00000000e-03
2.00000000e-03
2.00000000e-03
2.00000000e-03
2.00000000e-03
2.00000000e-03
2.00000000e-03
2.00000000e-03
2.00000000e-03
2.00000000e-03
2.00000000e-03
2.00000000e-03
2.00000000e-03
2.00000000e-03
2.00000000e-03
2.00000000e-03
2.00000000e-03
2.00000000e-03
2.00000000e-03
2.00000000e-03
2.00000000e-03
2.00000000e-03
2.00000000e-03
2.00000000e-03
2.00000000e-03
2.00000000e-03
2.00000000e-03
2.00000000e-03
2.00000000e-03
2.00000000e-03
2.00000000e-03
2.00000000e-03
2.00000000e-03
2.00000000e-03
2.00000000e-03
2.00000000e-03
2.00000000e-03
2.00000000e-03
2.00000000e-03
2.00000000e-03
2.00000000e-03
2.00000000e-03
2.00000000e-03
2.00000000e-03
2.00000000e-03
2.00000000e-03
2.00000000e-03
2.00000000e-03
2.00000000e-03
2.00000000e-03
2.00000000e-03
2.00000000e-03
2.00000000e-03
2.00000000e-03
2.00000000e-03
2.00000000e-03
2.00000000e-03
2.00000000e-03
2.00000000e-03
2.00000000e-03
2.00000000e-03
2.00000000e-03
2.00000000e-03
2.00000000e-03
2.00000000e-03
2.00000000e-03
2.00000000e-03
2.00000000e-03
2.00000000e-03
2.00000000e-03
2.00000000e-03
2.00000000e-03
2.00000000e-03
2.00000000e-03
2.00000000e-03
2.00000000e-03
2.00000000e-03
2.00000000e-03
2.00000000e-03
2.00000000e-03
2.00000000e-03
2.00000000e-03
2.00000000e-03
2.00000000e-03
2.00000000e-03
2.00000000e-03
2.00000000e-03
2.00000000e-03
2.00000000e-03
2.00000000e-03
2.00000000e-03
2.00000000e-03
2.00000000e-03
2.00000000e-03
2.00000000e-03
2.00000000e-03
2.00000000e-03
2.00000000e-03
2.00000000e-03
2.00000000e-03
2.00000000e-03
2.00000000e-03
2.00000000e-03
2.00000000e-03
2.00000000e-03
2.00000000e-03
2.00000000e-03
2.00000000e-03
2.00000000e-03
2.00000000e-03
2.00000000e-03
2.00000000e-03
2.00000000e-03
2.00000000e-03
2.00000000e-03
2.00000000e-03
2.00000000e-03
2.00000000e-03
2.00000000e-03
2.00000000e-03
2.00000000e-03
2.00000000e-03
2.00000000e-03
2.00000000e-03
2.00000000e-03
2.00000000e-03
2.00000000e-03
2.00000000e-03
2.00000000e-03
2.00000000e-03
2.00000000e-03
2.00000000e-03
2.00000000e-03
2.00000000e-03
2.00000000e-03
2.00000000e-03
2.00000000e-03
2.00000000e-03
2.00000000e-03
2.00000000e-03
2.00000000e-03
2.00000000e-03
2.00000000e-03
2.00000000e-03
2.00000000e-03
2.00000000e-03
2.00000000e-03
2.00000000e-03
2.00000000e-03
2.00000000e-03
2.00000000e-03
2.00000000e-03
2.00000000e-03
2.00000000e-03
2.00000000e-03
2.00000000e-03
2.00000000e-03
2.00000000e-03
2.00000000e-03
2.00000000e-03
2.00000000e-03
2.00000000e-03
2.00000000e-03
2.00000000e-03
2.00000000e-03
2.00000000e-03
2.00000000e-03
2.00000000e-03
2.00000000e-03
2.00000000e-03
2.00000000e-03
2.00000000e-03
2.00000000e-03
2.00000000e-03
2.00000000e-03
2.00000000e-03
2.00000000e-03
2.00000000e-03
2.00000000e-03
2.00000000e-03
2.00000000e-03
2.00000000e-03
2.00000000e-03
2.00000000e-03
2.00000000e-03
2.00000000e-03
2.00000000e-03
2.00000000e-03
2.00000000e-03
2.00000000e-03
2.00000000e-03
2.00000000e-03
2.00000000e-03
2.00000000e-03
2.00000000e-03
2.00000000e-03
2.00000000e-03
2.00000000e-03
2.00000000e-03
2.00000000e-03
2.00000000e-03
2.00000000e-03
2.00000000e-03
2.00000000e-03
2.00000000e-03
2.00000000e-03
2.00000000e-03
2.00000000e-03
2.00000000e-03
2.00000000e-03
2.00000000e-03
2.00000000e-03
2.00000000e-03
2.00000000e-03
2.00000000e-03
2.00000000e-03
2.00000000e-03
2.00000000e-03
2.00000000e-03
2.00000000e-03
2.00000000e-03
2.00000000e-03
2.00000000e-03
2.00000000e-03
2.00000000e-03
2.00000000e-03
2.00000000e-03
2.00000000e-03
2.00000000e-03
2.00000000e-03
2.00000000e-03
2.00000000e-03
2.00000000e-03
2.00000000e-03
2.00000000e-03
2.00000000e-03
2.00000000e-03
2.00000000e-03
2.00000000e-03
2.00000000e-03
2.00000000e-03
2.00000000e-03
2.00000000e-03
2.00000000e-03
2.00000000e-03
2.00000000e-03
2.00000000e-03
2.00000000e-03
2.00000000e-03
