# vtk DataFile Version 2.0
Particle data
ASCII
DATASET POLYDATA
POINTS 469 double
1.09659000e-03	-3.53495000e-02	8.73327000e-03
1.98051000e-02	8.09646000e-04	1.22782000e-02
2.91080000e-02	1.19634000e-02	2.00277000e-03
3.68937000e-02	-1.54236000e-02	1.79180000e-02
2.73745000e-02	1.01882000e-02	5.33922000e-03
2.27561000e-03	-3.99185000e-02	2.42765000e-03
3.74075000e-04	-3.31262000e-02	1.19791000e-02
1.98629000e-02	-2.17661000e-02	1.76341000e-02
1.41149000e-02	7.87680000e-03	1.67004000e-02
3.66008000e-02	-1.00735000e-04	1.08970000e-02
6.75657000e-03	-3.94149000e-02	1.78326000e-02
4.55894000e-03	-2.24802000e-02	1.80978000e-02
1.08296000e-02	-6.20413000e-03	1.46233000e-02
3.44867000e-02	1.79143000e-02	2.07540000e-03
5.06240000e-03	-3.96113000e-02	1.42143000e-02
3.17584000e-02	-1.10472000e-02	1.21361000e-02
3.19118000e-02	-1.80496000e-02	1.42430000e-02
1.70836000e-02	2.52694000e-03	3.29664000e-03
2.16818000e-02	-2.35589000e-02	1.40623000e-02
1.04504000e-02	-3.65102000e-02	1.10174000e-02
1.43397000e-02	-3.35825000e-02	2.00639000e-03
1.86419000e-02	5.94679000e-03	1.80996000e-02
3.56374000e-02	-1.08411000e-02	1.11821000e-02
1.55030000e-02	-1.64929000e-02	2.01791000e-03
2.88035000e-02	2.42332000e-03	1.99881000e-03
3.72548000e-02	-3.92133000e-03	1.44786000e-02
2.29380000e-02	-3.27319000e-02	1.44351000e-02
5.66738000e-03	-1.87657000e-02	1.33980000e-02
3.31620000e-02	-2.23197000e-02	1.70345000e-02
1.56321000e-02	-1.45026000e-02	1.42638000e-02
1.59736000e-02	1.91349000e-03	1.48080000e-02
-5.87929000e-03	-3.60256000e-02	2.00754000e-03
1.12186000e-02	-1.08579000e-02	7.95451000e-03
2.32528000e-02	-4.85448000e-04	1.73995000e-02
2.78390000e-02	-5.63553000e-03	9.19087000e-03
3.36373000e-02	1.60479000e-02	1.15204000e-02
2.40040000e-03	-3.76943000e-02	5.76702000e-03
2.49816000e-02	-2.63714000e-02	9.35818000e-03
9.37799000e-03	-1.93413000e-02	1.02047000e-02
2.59756000e-02	-4.96742000e-03	2.41084000e-03
2.21143000e-02	-2.88270000e-02	8.03738000e-03
8.21686000e-04	-1.58549000e-02	1.49422000e-02
3.20779000e-02	4.71870000e-03	2.01647000e-03
7.76064000e-03	-2.20079000e-02	1.46879000e-02
3.55604000e-02	-7.30880000e-03	1.30876000e-02
1.50988000e-02	-3.30725000e-02	1.08413000e-02
1.21084000e-02	-2.69378000e-02	1.38281000e-02
1.04422000e-02	-2.77508000e-02	5.59677000e-03
1.60782000e-02	-1.75471000e-02	1.17083000e-02
2.24582000e-03	-2.95622000e-02	1.75214000e-02
1.65805000e-02	-8.51273000e-03	4.73728000e-03
1.76691000e-02	-1.21313000e-03	2.00071000e-03
3.42714000e-02	-1.25703000e-02	1.62917000e-02
2.07942000e-02	-2.04524000e-02	8.03856000e-03
3.91946000e-02	-7.46810000e-03	5.04835000e-03
3.13064000e-02	-2.48123000e-02	1.42346000e-02
3.58719000e-02	-3.63891000e-03	9.18183000e-03
1.35240000e-02	-3.04873000e-02	1.50083000e-02
3.99881000e-02	1.79416000e-04	1.41982000e-02
3.65838000e-02	1.41149000e-03	1.73597000e-02
3.66088000e-02	1.56328000e-02	1.65065000e-02
2.30961000e-02	-1.24818000e-02	1.14579000e-02
7.62615000e-03	-2.67063000e-02	1.80997000e-02
3.09158000e-02	-1.96756000e-02	1.00130000e-02
3.06929000e-02	1.88056000e-02	3.65642000e-03
1.36491000e-02	-3.75646000e-02	6.82460000e-03
3.40887000e-02	4.21523000e-03	5.48750000e-03
2.18594000e-02	8.58811000e-03	1.62322000e-02
3.98124000e-02	-2.63355000e-03	1.13559000e-02
3.32134000e-02	9.58793000e-03	1.02579000e-02
2.46749000e-02	-3.13932000e-02	6.34922000e-03
1.64685000e-02	1.01793000e-02	2.00860000e-03
4.32844000e-03	-3.39193000e-02	1.81005000e-02
1.93403000e-02	-3.16598000e-02	8.56377000e-03
-1.71069000e-03	-3.24865000e-02	7.37545000e-03
2.13820000e-02	-3.31135000e-02	1.81001000e-02
2.31271000e-02	-2.41039000e-02	5.74199000e-03
1.37785000e-02	-1.33003000e-02	3.70107000e-03
2.42897000e-02	8.80266000e-03	3.18998000e-03
1.75901000e-02	-1.83068000e-02	1.81012000e-02
1.37588000e-02	-2.99857000e-02	5.52975000e-03
2.48985000e-02	-5.12205000e-03	6.52637000e-03
3.57569000e-02	3.11468000e-03	2.02287000e-03
3.56218000e-02	1.18664000e-02	1.74218000e-02
2.78585000e-02	-1.46281000e-03	2.00234000e-03
1.37829000e-02	-3.75420000e-02	1.99932000e-03
-4.92424000e-03	-3.24085000e-02	1.04011000e-02
3.35354000e-02	-1.45500000e-02	1.28876000e-02
2.96718000e-02	4.31704000e-03	5.41187000e-03
2.68165000e-02	-1.66643000e-02	6.71768000e-03
1.69581000e-02	-3.25981000e-02	5.49173000e-03
1.56814000e-02	-1.51866000e-03	6.01487000e-03
2.21547000e-02	1.83509000e-03	7.94916000e-03
2.38858000e-02	-3.19715000e-02	1.02293000e-02
3.08925000e-02	1.10227000e-02	1.80636000e-02
6.25597000e-03	-7.94081000e-03	5.54071000e-03
3.29962000e-02	-1.50763000e-02	8.92944000e-03
3.22296000e-02	-3.96746000e-03	1.81010000e-02
1.20418000e-02	-2.00493000e-02	1.81000000e-02
1.95472000e-02	-9.55585000e-03	1.35572000e-02
2.77219000e-02	-1.27560000e-02	1.99962000e-03
2.79587000e-02	-1.21693000e-02	1.11875000e-02
2.86731000e-02	-2.01905000e-02	1.32844000e-02
1.81538000e-02	9.91888000e-03	1.80828000e-02
3.49651000e-02	-7.53106000e-03	9.04208000e-03
1.32675000e-02	-2.33292000e-02	2.00535000e-03
3.15410000e-02	-1.15782000e-02	2.15193000e-03
1.90161000e-02	-1.84051000e-02	1.99980000e-03
3.52882000e-02	7.10306000e-03	2.00115000e-03
2.75571000e-02	4.47393000e-03	8.80182000e-03
2.97220000e-02	-1.53515000e-02	4.29297000e-03
1.73932000e-02	-3.28163000e-02	1.81004000e-02
1.13749000e-02	-3.22823000e-02	1.20797000e-02
3.32600000e-02	-1.56209000e-02	2.15859000e-03
3.29015000e-02	7.56392000e-03	1.80998000e-02
3.60327000e-02	-8.75406000e-04	1.99996000e-03
2.86131000e-02	-2.78980000e-02	1.00514000e-02
3.03262000e-02	-8.76739000e-03	9.16628000e-03
2.26312000e-02	1.20192000e-02	1.43057000e-02
4.69197000e-03	-1.34049000e-02	7.73811000e-03
4.64682000e-03	-3.23504000e-02	2.17583000e-03
9.77791000e-03	-2.33406000e-02	1.79128000e-02
1.25502000e-02	-3.79603000e-02	1.66413000e-02
3.30692000e-02	1.00648000e-02	1.48366000e-02
8.86997000e-03	4.70977000e-03	1.80848000e-02
1.11104000e-02	-3.53297000e-02	4.49630000e-03
-8.03351000e-04	-3.99539000e-02	4.98408000e-03
2.20670000e-02	7.66228000e-03	1.20920000e-02
2.87530000e-02	-2.26844000e-02	8.50840000e-03
2.62180000e-02	-2.15414000e-02	1.99945000e-03
2.51978000e-02	-2.75168000e-02	5.52331000e-03
1.11224000e-02	3.28059000e-03	1.04603000e-02
1.55585000e-02	-2.89707000e-02	1.81000000e-02
2.43681000e-02	1.59895000e-02	1.43008000e-02
1.85477000e-02	-1.32098000e-02	1.16640000e-02
3.82846000e-02	8.56610000e-03	5.87423000e-03
2.21453000e-02	1.15700000e-02	5.69531000e-03
-7.40269000e-04	-3.72934000e-02	1.99914000e-03
3.11702000e-02	-7.63601000e-03	1.41389000e-02
2.51946000e-02	-2.58075000e-02	1.73327000e-02
3.57354000e-02	5.74241000e-03	1.59412000e-02
8.43602000e-03	-3.37116000e-02	1.99985000e-03
9.99005000e-03	-3.49435000e-02	1.47237000e-02
2.92552000e-02	-2.71959000e-02	6.16752000e-03
3.85342000e-03	-3.25231000e-02	7.76257000e-03
1.00209000e-02	-3.87190000e-02	2.67419000e-03
3.89670000e-02	-8.64133000e-03	1.06017000e-02
6.07882000e-03	-3.87575000e-02	1.99960000e-03
2.22559000e-02	-1.54115000e-02	8.86984000e-03
2.62813000e-02	-3.00341000e-03	1.81008000e-02
8.93143000e-03	-2.91697000e-02	1.15098000e-02
2.82056000e-02	-8.44665000e-03	1.81006000e-02
-4.03287000e-03	-3.97204000e-02	1.13694000e-02
1.91774000e-02	-3.50606000e-02	1.53120000e-02
1.17384000e-02	-1.70243000e-02	1.24595000e-02
1.64550000e-02	-2.13391000e-02	1.04955000e-02
-4.61879000e-03	-3.96216000e-02	6.15200000e-03
2.66374000e-02	5.78624000e-03	2.00967000e-03
2.54396000e-02	1.84928000e-02	2.45571000e-03
7.43277000e-03	-2.93312000e-02	1.99933000e-03
1.50778000e-02	3.68466000e-03	8.92745000e-03
-4.06503000e-03	-3.97861000e-02	2.10213000e-03
3.96687000e-02	4.40575000e-03	1.41186000e-02
2.72573000e-02	-2.00589000e-02	1.81005000e-02
3.25398000e-02	-2.82424000e-03	1.99950000e-03
2.09020000e-02	-2.30102000e-03	1.45507000e-02
1.15073000e-02	-2.02644000e-02	6.60133000e-03
6.13629000e-03	-3.57110000e-02	4.59027000e-03
3.51727000e-02	-1.90297000e-02	1.80980000e-02
2.96113000e-02	-1.33055000e-02	7.72736000e-03
2.27002000e-04	-3.99194000e-02	9.06012000e-03
3.96368000e-02	2.29381000e-03	2.54616000e-03
1.18174000e-02	-2.59854000e-02	9.95451000e-03
-2.84987000e-03	-3.30007000e-02	1.45915000e-02
9.83445000e-03	-1.30303000e-02	4.86391000e-03
-4.67875000e-03	-3.63740000e-02	1.34626000e-02
1.81516000e-03	-1.86762000e-02	5.68835000e-03
1.89454000e-02	1.38440000e-02	1.80701000e-02
-6.94769000e-03	-3.70164000e-02	1.81000000e-02
2.30859000e-02	-1.70968000e-02	5.34182000e-03
3.58888000e-02	-1.76283000e-02	1.43366000e-02
1.94513000e-02	-1.54644000e-02	4.92951000e-03
7.39376000e-03	-1.96472000e-02	1.78940000e-02
3.72026000e-02	-1.45410000e-02	7.23370000e-03
2.11588000e-02	-6.99876000e-03	1.61849000e-02
-7.30522000e-03	-3.92646000e-02	9.10911000e-03
6.59323000e-03	-3.61140000e-02	1.26100000e-02
1.05558000e-02	-5.98297000e-03	9.60648000e-03
1.12326000e-02	-2.83830000e-02	1.76408000e-02
-2.57013000e-04	-3.01032000e-02	2.15991000e-03
3.61226000e-02	-6.47726000e-03	1.80400000e-02
3.46042000e-02	-9.22179000e-04	1.44748000e-02
3.92529000e-02	-7.38309000e-03	1.46258000e-02
3.39164000e-02	-2.11645000e-02	7.82742000e-03
1.74608000e-02	-1.88566000e-02	5.65713000e-03
2.47312000e-02	-1.69622000e-02	1.79456000e-02
3.23245000e-02	-9.33431000e-04	1.05895000e-02
1.44391000e-02	-1.58952000e-02	6.87403000e-03
9.46250000e-03	-2.30317000e-02	8.64017000e-03
3.99740000e-02	-7.15605000e-04	1.80985000e-02
2.07183000e-02	-3.41116000e-02	1.14069000e-02
1.34514000e-02	-3.35910000e-02	7.23375000e-03
2.66910000e-02	-1.92921000e-02	9.92863000e-03
1.38435000e-02	1.19823000e-02	1.74010000e-02
3.80302000e-02	-1.21802000e-02	1.43844000e-02
1.11090000e-02	-3.05912000e-02	8.46429000e-03
1.42834000e-02	-1.85929000e-02	1.51255000e-02
2.47328000e-02	-3.09966000e-02	1.75602000e-02
2.43547000e-02	1.61752000e-02	5.84613000e-03
2.02165000e-02	-2.72302000e-02	1.46718000e-02
3.60322000e-02	8.25944000e-03	1.28446000e-02
3.52214000e-02	-8.06955000e-03	2.00095000e-03
3.98228000e-02	3.51318000e-03	6.35123000e-03
2.85424000e-02	-1.08398000e-02	1.49138000e-02
2.44704000e-02	1.54999000e-02	1.03313000e-02
3.41144000e-02	8.21027000e-03	5.67615000e-03
[...]
POINT_DATA 469
SCALARS Radius double 1
LOOKUP_TABLE default
2.00000000e-03
2.00000000e-03
2.00000000e-03
2.00000000e-03
2.00000000e-03
2.00000000e-03
2.00000000e-03
2.00000000e-03
2.00000000e-03
2.00000000e-03
2.00000000e-03
2.00000000e-03
2.00000000e-03
2.00000000e-03
2.00000000e-03
2.00000000e-03
2.00000000e-03
2.00000000e-03
2.00000000e-03
2.00000000e-03
2.00000000e-03
2.00000000e-03
2.00000000e-03
2.00000000e-03
2.00000000e-03
2.00000000e-03
2.00000000e-03
2.00000000e-03
2.00000000e-03
2.00000000e-03
2.00000000e-03
2.00000000e-03
2.00000000e-03
2.00000000e-03
2.00000000e-03
2.00000000e-03
2.00000000e-03
2.00000000e-03
2.00000000e-03
2.00000000e-03
2.00000000e-03
2.00000000e-03
2.00000000e-03
2.00000000e-03
2.00000000e-03
2.00000000e-03
2.00000000e-03
2.00000000e-03
2.00000000e-03
2.00000000e-03
2.00000000e-03
2.00000000e-03
2.00000000e-03
2.00000000e-03
2.00000000e-03
2.00000000e-03
2.00000000e-03
2.00000000e-03
2.00000000e-03
2.00000000e-03
2.00000000e-03
2.00000000e-03
2.00000000e-03
2.00000000e-03
2.00000000e-03
2.00000000e-03
2.00000000e-03
2.00000000e-03
2.00000000e-03
2.00000000e-03
2.00000000e-03
2.00000000e-03
2.00000000e-03
2.00000000e-03
2.00000000e-03
2.00000000e-03
2.00000000e-03
2.00000000e-03
2.00000000e-03
2.00000000e-03
2.00000000e-03
2.00000000e-03
2.00000000e-03
2.00000000e-03
2.00000000e-03
2.00000000e-03
2.00000000e-03
2.00000000e-03
2.00000000e-03
2.00000000e-03
2.00000000e-03
2.00000000e-03
2.00000000e-03
2.00000000e-03
2.00000000e-03
2.00000000e-03
2.00000000e-03
2.00000000e-03
2.00000000e-03
2.00000000e-03
2.00000000e-03
2.00000000e-03
2.00000000e-03
2.00000000e-03
2.00000000e-03
2.00000000e-03
2.00000000e-03
2.00000000e-03
2.00000000e-03
2.00000000e-03
2.00000000e-03
2.00000000e-03
2.00000000e-03
2.00000000e-03
2.00000000e-03
2.00000000e-03
2.00000000e-03
2.00000000e-03
2.00000000e-03
2.00000000e-03
2.00000000e-03
2.00000000e-03
2.00000000e-03
2.00000000e-03
2.00000000e-03
2.00000000e-03
2.00000000e-03
2.00000000e-03
2.00000000e-03
2.00000000e-03
2.00000000e-03
2.00000000e-03
2.00000000e-03
2.00000000e-03
2.00000000e-03
2.00000000e-03
2.00000000e-03
2.00000000e-03
2.00000000e-03
2.00000000e-03
2.00000000e-03
2.00000000e-03
2.00000000e-03
2.00000000e-03
2.00000000e-03
2.00000000e-03
2.00000000e-03
2.00000000e-03
2.00000000e-03
2.00000000e-03
2.00000000e-03
2.00000000e-03
2.00000000e-03
2.00000000e-03
2.00000000e-03
2.00000000e-03
2.00000000e-03
2.00000000e-03
2.00000000e-03
2.00000000e-03
2.00000000e-03
2.00000000e-03
2.00000000e-03
2.00000000e-03
2.00000000e-03
2.00000000e-03
2.00000000e-03
2.00000000e-03
2.00000000e-03
2.00000000e-03
2.00000000e-03
2.00000000e-03
2.00000000e-03
2.00000000e-03
2.00000000e-03
2.00000000e-03
2.00000000e-03
2.00000000e-03
2.00000000e-03
2.00000000e-03
2.00000000e-03
2.00000000e-03
2.00000000e-03
2.00000000e-03
2.00000000e-03
2.00000000e-03
2.00000000e-03
2.00000000e-03
2.00000000e-03
2.00000000e-03
2.00000000e-03
2.00000000e-03
2.00000000e-03
2.00000000e-03
2.00000000e-03
2.00000000e-03
2.00000000e-03
2.00000000e-03
2.00000000e-03
2.00000000e-03
2.00000000e-03
2.00000000e-03
2.00000000e-03
2.00000000e-03
2.00000000e-03
2.00000000e-03
2.00000000e-03
2.00000000e-03
2.00000000e-03
2.00000000e-03
2.00000000e-03
2.00000000e-03
2.00000000e-03
2.00000000e-03
2.00000000e-03
2.00000000e-03
2.00000000e-03
2.00000000e-03
2.00000000e-03
2.00000000e-03
2.00000000e-03
2.00000000e-03
2.00000000e-03
2.00000000e-03
2.00000000e-03
2.00000000e-03
2.00000000e-03
2.00000000e-03
2.00000000e-03
2.00000000e-03
2.00000000e-03
2.00000000e-03
2.00000000e-03
2.00000000e-03
2.00000000e-03
2.00000000e-03
2.00000000e-03
2.00000000e-03
2.00000000e-03
2.00000000e-03
2.00000000e-03
2.00000000e-03
2.00000000e-03
2.00000000e-03
2.00000000e-03
2.00000000e-03
2.00000000e-03
2.00000000e-03
2.00000000e-03
2.00000000e-03
2.00000000e-03
2.00000000e-03
2.00000000e-03
2.00000000e-03
2.00000000e-03
2.00000000e-03
2.00000000e-03
2.00000000e-03
2.00000000e-03
2.00000000e-03
2.00000000e-03
2.00000000e-03
2.00000000e-03
2.00000000e-03
2.00000000e-03
2.00000000e-03
2.00000000e-03
2.00000000e-03
2.00000000e-03
2.00000000e-03
2.00000000e-03
2.00000000e-03
2.00000000e-03
2.00000000e-03
2.00000000e-03
2.00000000e-03
2.00000000e-03
2.00000000e-03
2.00000000e-03
2.00000000e-03
2.00000000e-03
2.00000000e-03
2.00000000e-03
2.00000000e-03
2.00000000e-03
2.00000000e-03
2.00000000e-03
2.00000000e-03
2.00000000e-03
2.00000000e-03
2.00000000e-03
2.00000000e-03
2.00000000e-03
2.00000000e-03
2.00000000e-03
2.00000000e-03
2.00000000e-03
2.00000000e-03
2.00000000e-03
2.00000000e-03
2.00000000e-03
2.00000000e-03
2.00000000e-03
2.00000000e-03
2.00000000e-03
2.00000000e-03
2.00000000e-03
2.00000000e-03
2.00000000e-03
2.00000000e-03
2.00000000e-03
2.00000000e-03
2.00000000e-03
2.00000000e-03
2.00000000e-03
2.00000000e-03
2.00000000e-03
2.00000000e-03
2.00000000e-03
2.00000000e-03
2.00000000e-03
2.00000000e-03
2.00000000e-03
2.00000000e-03
2.00000000e-03
2.00000000e-03
2.00000000e-03
2.00000000e-03
2.00000000e-03
2.00000000e-03
2.00000000e-03
2.00000000e-03
2.00000000e-03
2.00000000e-03
2.00000000e-03
2.00000000e-03
2.00000000e-03
2.00000000e-03
2.00000000e-03
2.00000000e-03
2.00000000e-03
2.00000000e-03
2.00000000e-03
2.00000000e-03
2.00000000e-03
2.00000000e-03
2.00000000e-03
2.00000000e-03
2.00000000e-03
2.00000000e-03
2.00000000e-03
2.00000000e-03
2.00000000e-03
2.00000000e-03
2.00000000e-03
2.00000000e-03
2.00000000e-03
2.00000000e-03
2.00000000e-03
2.00000000e-03
2.00000000e-03
2.00000000e-03
2.00000000e-03
2.00000000e-03
2.00000000e-03
2.00000000e-03
2.00000000e-03
2.00000000e-03
2.00000000e-03
2.00000000e-03
2.00000000e-03
2.00000000e-03
2.00000000e-03
2.00000000e-03
2.00000000e-03
2.00000000e-03
2.00000000e-03
2.00000000e-03
2.00000000e-03
2.00000000e-03
2.00000000e-03
2.00000000e-03
2.00000000e-03
2.00000000e-03
2.00000000e-03
2.00000000e-03
2.00000000e-03
2.00000000e-03
2.00000000e-03
2.00000000e-03
2.00000000e-03
2.00000000e-03
2.00000000e-03
2.00000000e-03
2.00000000e-03
2.00000000e-03
2.00000000e-03
2.00000000e-03
2.00000000e-03
2.00000000e-03
2.00000000e-03
2.00000000e-03
2.00000000e-03
2.00000000e-03
2.00000000e-03
2.00000000e-03
2.00000000e-03
2.00000000e-03
2.00000000e-03
2.00000000e-03
2.00000000e-03
2.00000000e-03
2.00000000e-03
2.00000000e-03
2.00000000e-03
2.00000000e-03
2.00000000e-03
2.00000000e-03
2.00000000e-03
2.00000000e-03
2.00000000e-03
2.00000000e-03
2.00000000e-03
2.00000000e-03
2.00000000e-03
2.00000000e-03
2.00000000e-03
2.00000000e-03
2.00000000e-03
2.00000000e-03
2.00000000e-03
2.00000000e-03
2.00000000e-03
2.00000000e-03
2.00000000e-03
2.00000000e-03
2.00000000e-03
2.00000000e-03
2.00000000e-03
2.00000000e-03
2.00000000e-03
2.00000000e-03
2.00000000e-03
2.00000000e-03
2.00000000e-03
2.00000000e-03
2.00000000e-03
2.00000000e-03
2.00000000e-03
2.00000000e-03
2.00000000e-03
2.00000000e-03
2.00000000e-03
2.00000000e-03
2.00000000e-03
2.00000000e-03
2.00000000e-03
2.00000000e-03
2.00000000e-03
2.00000000e-03
2.00000000e-03
2.00000000e-03
2.00000000e-03
2.00000000e-03
2.00000000e-03
2.00000000e-03
2.00000000e-03
2.00000000e-03
2.00000000e-03
