# vtk DataFile Version 2.0
Particle data
ASCII
DATASET POLYDATA
POINTS 469 double
3.58312000e-02	-4.81537000e-03	8.94566000e-03
2.95431000e-02	-1.43429000e-02	1.38090000e-02
2.08577000e-02	-2.30073000e-02	5.73538000e-03
1.78388000e-02	1.30954000e-02	1.36767000e-02
2.46008000e-02	-1.42429000e-02	2.55982000e-03
3.99100000e-02	-2.59592000e-03	2.43403000e-03
3.30979000e-02	-6.06487000e-03	1.15951000e-02
1.94208000e-02	1.55593000e-03	1.79023000e-02
2.76167000e-02	-2.38960000e-02	1.81002000e-02
-7.77619000e-03	-3.67080000e-02	1.80675000e-02
3.98055000e-02	3.84055000e-03	1.81006000e-02
2.96894000e-02	-1.12011000e-02	1.81002000e-02
1.92898000e-02	-3.50261000e-02	1.19361000e-02
2.02854000e-02	-2.00669000e-02	2.98801000e-03
3.99573000e-02	2.78749000e-04	1.44953000e-02
2.83475000e-03	-2.10800000e-02	1.16629000e-02
1.88662000e-02	6.48251000e-03	1.43298000e-02
3.09142000e-02	-1.88123000e-02	1.99943000e-03
1.92625000e-02	-9.06769000e-05	1.18117000e-02
3.73585000e-02	6.11366000e-03	1.14520000e-02
3.46674000e-02	8.89796000e-03	2.00074000e-03
2.39249000e-02	-2.82995000e-02	1.81004000e-02
-1.98750000e-02	-3.46659000e-02	4.49136000e-03
1.73907000e-02	-1.29524000e-02	2.01375000e-03
1.62095000e-02	-2.20229000e-02	1.99957000e-03
-1.90853000e-03	-3.50611000e-02	8.96311000e-03
3.40139000e-02	1.49382000e-02	1.35220000e-02
2.84278000e-02	-2.28279000e-02	1.37174000e-02
1.94755000e-02	1.54194000e-02	1.04632000e-02
2.16669000e-02	-6.52904000e-03	1.48751000e-02
2.67641000e-02	-2.16574000e-02	1.00969000e-02
3.60186000e-02	-1.73751000e-02	1.99991000e-03
3.16326000e-02	-1.72256000e-02	5.59926000e-03
1.37255000e-02	-2.61279000e-02	1.80832000e-02
4.85874000e-03	-3.96700000e-02	1.10851000e-02
2.27649000e-02	-2.46112000e-02	1.14771000e-02
3.98749000e-02	-1.20412000e-03	6.70057000e-03
2.48306000e-02	1.41356000e-02	1.04729000e-02
3.10486000e-02	-9.43396000e-03	1.09184000e-02
1.96682000e-02	-1.62415000e-02	1.99955000e-03
2.82310000e-02	1.36650000e-02	8.41462000e-03
3.59949000e-02	-1.73147000e-02	1.48865000e-02
2.83169000e-03	-3.98918000e-02	2.14725000e-03
2.72255000e-02	-4.29777000e-03	1.42066000e-02
4.81917000e-03	-2.87997000e-02	1.71228000e-02
3.43044000e-02	8.68871000e-03	1.18774000e-02
2.87038000e-02	3.19299000e-03	1.48282000e-02
2.33157000e-02	-1.76049000e-03	7.50253000e-03
1.71342000e-02	-1.11354000e-02	1.42736000e-02
2.82974000e-02	-5.18225000e-03	1.79574000e-02
1.87778000e-02	-5.13507000e-03	2.04603000e-03
1.80493000e-02	-8.56007000e-03	8.22441000e-03
1.81535000e-02	1.12535000e-02	1.72422000e-02
1.95301000e-02	-4.98924000e-03	7.19242000e-03
-6.17952000e-03	-3.08247000e-02	1.33005000e-02
2.39745000e-02	1.72608000e-02	1.28276000e-02
-8.74467000e-03	-3.89682000e-02	8.61676000e-03
3.11133000e-02	6.65982000e-03	1.53899000e-02
6.61038000e-03	-3.60330000e-02	1.44056000e-02
1.97556000e-03	-3.17192000e-02	1.61115000e-02
9.11526000e-03	-3.55215000e-02	1.81006000e-02
1.23096000e-02	-2.77118000e-02	1.00035000e-02
2.11298000e-02	-1.25399000e-02	1.76588000e-02
1.17281000e-02	-4.55538000e-03	1.32817000e-02
2.24267000e-02	-2.67073000e-02	4.06832000e-03
3.85927000e-02	9.73210000e-03	5.95344000e-03
-2.06746000e-03	-3.99233000e-02	3.28927000e-03
2.85160000e-02	-1.50250000e-02	1.80999000e-02
1.35983000e-03	-3.59332000e-02	5.69686000e-03
1.62506000e-02	-3.64755000e-02	9.77702000e-03
3.13782000e-02	1.48106000e-02	5.62250000e-03
2.54208000e-02	-2.83689000e-02	1.99940000e-03
3.43608000e-02	-9.45131000e-04	1.81001000e-02
3.31181000e-02	1.22128000e-02	9.22827000e-03
3.77307000e-02	-1.29049000e-02	6.19624000e-03
3.65273000e-02	1.53074000e-02	1.76236000e-02
2.36436000e-02	5.89031000e-03	8.82796000e-03
2.92174000e-02	-6.26017000e-03	9.31607000e-03
1.52226000e-02	-3.69804000e-02	1.81000000e-02
3.42364000e-03	-2.11121000e-02	1.58799000e-02
3.14264000e-02	6.84221000e-03	6.10680000e-03
1.39753000e-02	-2.82792000e-02	6.41081000e-03
1.02701000e-02	-2.87504000e-02	1.99992000e-03
8.09344000e-03	-2.67235000e-02	1.81015000e-02
8.86948000e-03	-3.24654000e-02	2.48132000e-03
3.88529000e-02	9.18282000e-03	2.00006000e-03
3.51508000e-02	-1.27231000e-02	1.48133000e-02
-5.47582000e-03	-2.87195000e-02	9.59750000e-03
1.40834000e-02	-3.42697000e-02	6.36735000e-03
5.82289000e-03	-2.38126000e-02	4.83778000e-03
3.37531000e-02	1.16145000e-02	5.23741000e-03
3.08034000e-02	-3.36034000e-03	1.99870000e-03
2.58338000e-02	-2.76728000e-02	6.28823000e-03
3.38373000e-02	1.61184000e-02	9.70409000e-03
2.41587000e-02	-2.00300000e-02	6.95496000e-03
2.96952000e-02	-2.67758000e-02	8.36028000e-03
3.91539000e-03	-1.62060000e-02	4.79868000e-03
-2.09482000e-03	-3.65193000e-02	1.27561000e-02
1.81504000e-02	-1.99789000e-02	1.81000000e-02
2.04324000e-02	-1.85834000e-02	6.81748000e-03
8.34805000e-04	-2.80135000e-02	7.79900000e-03
-4.78125000e-04	-3.28670000e-02	1.25499000e-02
1.75997000e-02	2.69252000e-03	1.45220000e-02
1.95362000e-02	-3.48901000e-02	1.73048000e-02
3.10687000e-03	-3.17514000e-02	7.47192000e-03
2.15992000e-02	-2.26153000e-03	2.00006000e-03
1.45235000e-02	-1.19124000e-02	5.43290000e-03
1.09500000e-02	-1.67554000e-02	7.37876000e-03
-4.21031000e-03	-3.68001000e-02	1.99987000e-03
2.61524000e-02	-1.16622000e-02	5.19124000e-03
-5.79717000e-03	-3.31294000e-02	2.09170000e-03
3.30419000e-02	1.25752000e-02	1.80995000e-02
3.15082000e-02	5.04464000e-03	1.17539000e-02
1.26705000e-02	-3.27624000e-03	2.08213000e-03
1.34428000e-02	-3.08791000e-02	1.45472000e-02
2.17811000e-03	-3.34077000e-02	1.99980000e-03
2.89741000e-02	1.73832000e-02	9.68769000e-03
-8.31464000e-03	-3.70214000e-02	5.14893000e-03
2.57419000e-02	-1.78326000e-02	1.06669000e-02
3.63257000e-02	-1.66928000e-02	7.25250000e-03
3.22310000e-02	4.36260000e-04	1.99986000e-03
1.74137000e-02	-1.55413000e-02	1.57841000e-02
3.91430000e-02	7.77877000e-03	1.78833000e-02
1.26007000e-02	-3.79510000e-02	5.87454000e-03
2.28586000e-02	-3.28110000e-02	1.81002000e-02
3.63798000e-02	6.47910000e-03	4.68690000e-03
3.95965000e-02	-5.03567000e-03	5.58759000e-03
3.04850000e-02	-1.09512000e-02	7.26073000e-03
1.99843000e-02	5.82872000e-03	1.05150000e-02
2.12326000e-02	3.85573000e-03	2.02837000e-03
2.48373000e-02	9.78447000e-03	6.46881000e-03
2.49615000e-02	-3.12519000e-02	4.73201000e-03
3.01981000e-02	9.45297000e-03	1.81011000e-02
3.17871000e-02	-1.75102000e-02	1.28463000e-02
1.92913000e-02	-1.34782000e-02	8.48650000e-03
9.31075000e-03	-3.88031000e-02	1.33844000e-02
2.70628000e-02	-2.08802000e-02	3.87219000e-03
3.62895000e-02	-4.27794000e-03	1.99977000e-03
1.39566000e-02	-2.00645000e-02	1.25066000e-02
2.47676000e-02	1.47286000e-02	1.74492000e-02
9.26800000e-03	-3.23114000e-02	1.57233000e-02
3.43482000e-02	4.18972000e-03	2.00117000e-03
3.49566000e-02	5.19878000e-03	1.45700000e-02
2.66641000e-02	1.59095000e-02	5.49429000e-03
3.31799000e-02	-1.85065000e-03	8.53473000e-03
3.96181000e-02	5.31135000e-03	2.65001000e-03
-1.05378000e-02	-3.34548000e-02	5.20008000e-03
3.99552000e-02	1.37957000e-03	1.99980000e-03
1.37288000e-02	-1.93741000e-02	8.57312000e-03
6.64133000e-03	-2.36008000e-02	1.60727000e-02
3.28813000e-02	1.40307000e-03	1.08385000e-02
7.64688000e-03	-2.35076000e-02	8.41573000e-03
3.92428000e-02	-7.52256000e-03	1.14550000e-02
3.67375000e-02	1.21037000e-02	1.42613000e-02
2.15727000e-02	-3.32913000e-03	1.13691000e-02
1.66025000e-02	-3.25908000e-03	1.23898000e-02
3.88911000e-02	-9.15292000e-03	5.43902000e-03
2.12658000e-02	-1.42648000e-02	5.08683000e-03
1.63992000e-02	-3.64690000e-02	1.42950000e-02
2.64978000e-02	-3.69921000e-03	2.16583000e-03
2.81314000e-02	-2.34457000e-02	6.79075000e-03
3.94009000e-02	-6.79032000e-03	1.99916000e-03
1.13201000e-02	-3.61963000e-02	9.23205000e-03
2.05403000e-02	1.48420000e-02	1.80278000e-02
1.12493000e-02	-2.48731000e-02	2.06041000e-03
2.72547000e-02	-1.11779000e-02	1.29462000e-02
1.94865000e-02	-6.74249000e-03	1.14884000e-02
3.60821000e-02	2.37223000e-03	5.11459000e-03
1.34906000e-02	8.92750000e-03	1.79592000e-02
-4.08354000e-03	-2.87715000e-02	4.81854000e-03
3.97353000e-02	-4.08603000e-03	9.47014000e-03
1.36741000e-03	-3.67077000e-02	1.05772000e-02
2.41591000e-02	-2.72590000e-04	1.11184000e-02
3.15615000e-02	-1.09758000e-02	1.45727000e-02
2.95016000e-02	-4.53647000e-03	5.59296000e-03
3.49773000e-02	-9.48357000e-03	1.24758000e-02
3.34718000e-02	-2.18866000e-02	1.99927000e-03
1.88523000e-02	-3.10340000e-02	1.81016000e-02
3.83427000e-02	-1.13625000e-02	1.80952000e-02
9.54050000e-03	-2.68331000e-02	7.24905000e-03
1.94192000e-02	9.62902000e-03	1.19217000e-02
1.18507000e-02	-3.13029000e-02	4.88089000e-03
2.64067000e-02	-8.70404000e-03	1.81004000e-02
7.61372000e-03	-1.09809000e-02	7.37319000e-03
1.75289000e-02	-2.57390000e-02	1.14495000e-02
3.83919000e-02	-1.09834000e-02	9.64112000e-03
3.64328000e-02	1.72568000e-03	1.32442000e-02
3.37705000e-02	-2.12502000e-02	1.34519000e-02
2.65636000e-02	1.03688000e-03	1.80944000e-02
3.75713000e-02	-1.36895000e-02	2.00399000e-03
5.10200000e-03	-1.78642000e-02	1.42369000e-02
1.18350000e-02	-2.72655000e-02	1.39505000e-02
-1.82426000e-02	-3.55270000e-02	1.22679000e-02
1.41458000e-02	4.84240000e-03	8.23115000e-03
1.74274000e-02	-2.09523000e-02	5.65501000e-03
2.07288000e-02	5.45676000e-03	1.80597000e-02
1.71453000e-02	-2.95297000e-02	1.02320000e-02
1.48862000e-02	-1.17080000e-02	9.81578000e-03
2.55517000e-02	-4.95654000e-03	8.39013000e-03
-4.41893000e-03	-3.44154000e-02	1.80861000e-02
3.69747000e-02	1.32800000e-02	1.04427000e-02
3.44886000e-02	8.70486000e-03	7.88173000e-03
1.85160000e-03	-1.60809000e-02	1.16391000e-02
2.34017000e-02	-3.23845000e-02	1.17215000e-02
-2.07080000e-03	-3.11946000e-02	1.58573000e-02
2.89432000e-02	2.02166000e-03	7.96613000e-03
2.18861000e-02	1.27516000e-03	1.46717000e-02
3.23080000e-02	1.63926000e-02	1.68398000e-02
2.46452000e-02	-2.25936000e-02	1.49917000e-02
2.54950000e-02	1.03333000e-02	1.41480000e-02
5.06524000e-03	-3.96602000e-02	1.50795000e-02
6.72585000e-03	-2.11222000e-02	2.01893000e-03
2.63058000e-03	-3.65433000e-02	1.44835000e-02
5.60827000e-03	-3.19189000e-02	1.41612000e-02
2.86285000e-02	-1.86999000e-02	1.49947000e-02
1.97446000e-02	-2.39038000e-02	1.99973000e-03
[...]
POINT_DATA 469
SCALARS Radius double 1
LOOKUP_TABLE default
2.00000000e-03
2.00000000e-03
2.00000000e-03
2.00000000e-03
2.00000000e-03
2.00000000e-03
2.00000000e-03
2.00000000e-03
2.00000000e-03
2.00000000e-03
2.00000000e-03
2.00000000e-03
2.00000000e-03
2.00000000e-03
2.00000000e-03
2.00000000e-03
2.00000000e-03
2.00000000e-03
2.00000000e-03
2.00000000e-03
2.00000000e-03
2.00000000e-03
2.00000000e-03
2.00000000e-03
2.00000000e-03
2.00000000e-03
2.00000000e-03
2.00000000e-03
2.00000000e-03
2.00000000e-03
2.00000000e-03
2.00000000e-03
2.00000000e-03
2.00000000e-03
2.00000000e-03
2.00000000e-03
2.00000000e-03
2.00000000e-03
2.00000000e-03
2.00000000e-03
2.00000000e-03
2.00000000e-03
2.00000000e-03
2.00000000e-03
2.00000000e-03
2.00000000e-03
2.00000000e-03
2.00000000e-03
2.00000000e-03
2.00000000e-03
2.00000000e-03
2.00000000e-03
2.00000000e-03
2.00000000e-03
2.00000000e-03
2.00000000e-03
2.00000000e-03
2.00000000e-03
2.00000000e-03
2.00000000e-03
2.00000000e-03
2.00000000e-03
2.00000000e-03
2.00000000e-03
2.00000000e-03
2.00000000e-03
2.00000000e-03
2.00000000e-03
2.00000000e-03
2.00000000e-03
2.00000000e-03
2.00000000e-03
2.00000000e-03
2.00000000e-03
2.00000000e-03
2.00000000e-03
2.00000000e-03
2.00000000e-03
2.00000000e-03
2.00000000e-03
2.00000000e-03
2.00000000e-03
2.00000000e-03
2.00000000e-03
2.00000000e-03
2.00000000e-03
2.00000000e-03
2.00000000e-03
2.00000000e-03
2.00000000e-03
2.00000000e-03
2.00000000e-03
2.00000000e-03
2.00000000e-03
2.00000000e-03
2.00000000e-03
2.00000000e-03
2.00000000e-03
2.00000000e-03
2.00000000e-03
2.00000000e-03
2.00000000e-03
2.00000000e-03
2.00000000e-03
2.00000000e-03
2.00000000e-03
2.00000000e-03
2.00000000e-03
2.00000000e-03
2.00000000e-03
2.00000000e-03
2.00000000e-03
2.00000000e-03
2.00000000e-03
2.00000000e-03
2.00000000e-03
2.00000000e-03
2.00000000e-03
2.00000000e-03
2.00000000e-03
2.00000000e-03
2.00000000e-03
2.00000000e-03
2.00000000e-03
2.00000000e-03
2.00000000e-03
2.00000000e-03
2.00000000e-03
2.00000000e-03
2.00000000e-03
2.00000000e-03
2.00000000e-03
2.00000000e-03
2.00000000e-03
2.00000000e-03
2.00000000e-03
2.00000000e-03
2.00000000e-03
2.00000000e-03
2.00000000e-03
2.00000000e-03
2.00000000e-03
2.00000000e-03
2.00000000e-03
2.00000000e-03
2.00000000e-03
2.00000000e-03
2.00000000e-03
2.00000000e-03
2.00000000e-03
2.00000000e-03
2.00000000e-03
2.00000000e-03
2.00000000e-03
2.00000000e-03
2.00000000e-03
2.00000000e-03
2.00000000e-03
2.00000000e-03
2.00000000e-03
2.00000000e-03
2.00000000e-03
2.00000000e-03
2.00000000e-03
2.00000000e-03
2.00000000e-03
2.00000000e-03
2.00000000e-03
2.00000000e-03
2.00000000e-03
2.00000000e-03
2.00000000e-03
2.00000000e-03
2.00000000e-03
2.00000000e-03
2.00000000e-03
2.00000000e-03
2.00000000e-03
2.00000000e-03
2.00000000e-03
2.00000000e-03
2.00000000e-03
2.00000000e-03
2.00000000e-03
2.00000000e-03
2.00000000e-03
2.00000000e-03
2.00000000e-03
2.00000000e-03
2.00000000e-03
2.00000000e-03
2.00000000e-03
2.00000000e-03
2.00000000e-03
2.00000000e-03
2.00000000e-03
2.00000000e-03
2.00000000e-03
2.00000000e-03
2.00000000e-03
2.00000000e-03
2.00000000e-03
2.00000000e-03
2.00000000e-03
2.00000000e-03
2.00000000e-03
2.00000000e-03
2.00000000e-03
2.00000000e-03
2.00000000e-03
2.00000000e-03
2.00000000e-03
2.00000000e-03
2.00000000e-03
2.00000000e-03
2.00000000e-03
2.00000000e-03
2.00000000e-03
2.00000000e-03
2.00000000e-03
2.00000000e-03
2.00000000e-03
2.00000000e-03
2.00000000e-03
2.00000000e-03
2.00000000e-03
2.00000000e-03
2.00000000e-03
2.00000000e-03
2.00000000e-03
2.00000000e-03
2.00000000e-03
2.00000000e-03
2.00000000e-03
2.00000000e-03
2.00000000e-03
2.00000000e-03
2.00000000e-03
2.00000000e-03
2.00000000e-03
2.00000000e-03
2.00000000e-03
2.00000000e-03
2.00000000e-03
2.00000000e-03
2.00000000e-03
2.00000000e-03
2.00000000e-03
2.00000000e-03
2.00000000e-03
2.00000000e-03
2.00000000e-03
2.00000000e-03
2.00000000e-03
2.00000000e-03
2.00000000e-03
2.00000000e-03
2.00000000e-03
2.00000000e-03
2.00000000e-03
2.00000000e-03
2.00000000e-03
2.00000000e-03
2.00000000e-03
2.00000000e-03
2.00000000e-03
2.00000000e-03
2.00000000e-03
2.00000000e-03
2.00000000e-03
2.00000000e-03
2.00000000e-03
2.00000000e-03
2.00000000e-03
2.00000000e-03
2.00000000e-03
2.00000000e-03
2.00000000e-03
2.00000000e-03
2.00000000e-03
2.00000000e-03
2.00000000e-03
2.00000000e-03
2.00000000e-03
2.00000000e-03
2.00000000e-03
2.00000000e-03
2.00000000e-03
2.00000000e-03
2.00000000e-03
2.00000000e-03
2.00000000e-03
2.00000000e-03
2.00000000e-03
2.00000000e-03
2.00000000e-03
2.00000000e-03
2.00000000e-03
2.00000000e-03
2.00000000e-03
2.00000000e-03
2.00000000e-03
2.00000000e-03
2.00000000e-03
2.00000000e-03
2.00000000e-03
2.00000000e-03
2.00000000e-03
2.00000000e-03
2.00000000e-03
2.00000000e-03
2.00000000e-03
2.00000000e-03
2.00000000e-03
2.00000000e-03
2.00000000e-03
2.00000000e-03
2.00000000e-03
2.00000000e-03
2.00000000e-03
2.00000000e-03
2.00000000e-03
2.00000000e-03
2.00000000e-03
2.00000000e-03
2.00000000e-03
2.00000000e-03
2.00000000e-03
2.00000000e-03
2.00000000e-03
2.00000000e-03
2.00000000e-03
2.00000000e-03
2.00000000e-03
2.00000000e-03
2.00000000e-03
2.00000000e-03
2.00000000e-03
2.00000000e-03
2.00000000e-03
2.00000000e-03
2.00000000e-03
2.00000000e-03
2.00000000e-03
2.00000000e-03
2.00000000e-03
2.00000000e-03
2.00000000e-03
2.00000000e-03
2.00000000e-03
2.00000000e-03
2.00000000e-03
2.00000000e-03
2.00000000e-03
2.00000000e-03
2.00000000e-03
2.00000000e-03
2.00000000e-03
2.00000000e-03
2.00000000e-03
2.00000000e-03
2.00000000e-03
2.00000000e-03
2.00000000e-03
2.00000000e-03
2.00000000e-03
2.00000000e-03
2.00000000e-03
2.00000000e-03
2.00000000e-03
2.00000000e-03
2.00000000e-03
2.00000000e-03
2.00000000e-03
2.00000000e-03
2.00000000e-03
2.00000000e-03
2.00000000e-03
2.00000000e-03
2.00000000e-03
2.00000000e-03
2.00000000e-03
2.00000000e-03
2.00000000e-03
2.00000000e-03
2.00000000e-03
2.00000000e-03
2.00000000e-03
2.00000000e-03
2.00000000e-03
2.00000000e-03
2.00000000e-03
2.00000000e-03
2.00000000e-03
2.00000000e-03
2.00000000e-03
2.00000000e-03
2.00000000e-03
2.00000000e-03
2.00000000e-03
2.00000000e-03
2.00000000e-03
2.00000000e-03
2.00000000e-03
2.00000000e-03
2.00000000e-03
2.00000000e-03
2.00000000e-03
2.00000000e-03
2.00000000e-03
2.00000000e-03
2.00000000e-03
2.00000000e-03
2.00000000e-03
2.00000000e-03
2.00000000e-03
2.00000000e-03
2.00000000e-03
2.00000000e-03
2.00000000e-03
2.00000000e-03
2.00000000e-03
2.00000000e-03
2.00000000e-03
2.00000000e-03
2.00000000e-03
2.00000000e-03
2.00000000e-03
2.00000000e-03
2.00000000e-03
2.00000000e-03
2.00000000e-03
2.00000000e-03
2.00000000e-03
2.00000000e-03
2.00000000e-03
2.00000000e-03
2.00000000e-03
2.00000000e-03
2.00000000e-03
2.00000000e-03
2.00000000e-03
2.00000000e-03
2.00000000e-03
2.00000000e-03
2.00000000e-03
2.00000000e-03
2.00000000e-03
2.00000000e-03
2.00000000e-03
2.00000000e-03
2.00000000e-03
2.00000000e-03
2.00000000e-03
2.00000000e-03
2.00000000e-03
2.00000000e-03
2.00000000e-03
2.00000000e-03
2.00000000e-03
2.00000000e-03
2.00000000e-03
2.00000000e-03
2.00000000e-03
2.00000000e-03
2.00000000e-03
2.00000000e-03
2.00000000e-03
2.00000000e-03
