# vtk DataFile Version 2.0
Particle data
ASCII
DATASET POLYDATA
POINTS 469 double
1.92385000e-02	-3.05199000e-02	8.75424000e-03
8.15497000e-03	-3.20389000e-02	1.31149000e-02
4.08489000e-03	-2.37155000e-02	2.47071000e-03
3.92942000e-02	7.38711000e-03	1.81001000e-02
4.98470000e-03	-2.76128000e-02	2.34640000e-03
2.38646000e-02	-3.20763000e-02	2.47298000e-03
1.66007000e-02	-2.92384000e-02	1.14853000e-02
2.66968000e-02	-8.78466000e-03	1.72015000e-02
-7.09772000e-04	-3.55507000e-02	1.81000000e-02
2.83381000e-02	1.66846000e-02	1.22988000e-02
2.83266000e-02	-2.82193000e-02	1.79221000e-02
1.07409000e-02	-2.99016000e-02	1.81011000e-02
-1.26359000e-02	-3.53475000e-02	9.93415000e-03
8.19524000e-03	-1.76147000e-02	2.29329000e-03
2.57548000e-02	-3.05061000e-02	1.44767000e-02
3.20797000e-02	5.36610000e-03	1.23753000e-02
3.65685000e-02	1.37208000e-03	1.41041000e-02
5.41100000e-03	-3.61001000e-02	2.00410000e-03
3.01866000e-02	-8.78064000e-03	1.38128000e-02
2.91531000e-02	-2.44458000e-02	1.10738000e-02
3.02465000e-02	-2.00266000e-02	2.01904000e-03
-6.71660000e-03	-3.61234000e-02	1.80988000e-02
3.55812000e-02	8.92745000e-03	1.16754000e-02
2.04732000e-02	-9.16124000e-03	2.65683000e-03
1.50854000e-02	-1.63125000e-03	2.43210000e-03
3.24470000e-02	1.19521000e-02	1.45364000e-02
3.70242000e-02	-1.49807000e-02	1.40680000e-02
1.21905000e-03	-3.66142000e-02	1.32907000e-02
3.99366000e-02	-1.51066000e-03	1.58236000e-02
1.70707000e-02	-1.49202000e-02	1.34403000e-02
2.22884000e-03	-3.33880000e-02	1.11466000e-02
1.01227000e-02	-3.86785000e-02	2.02187000e-03
7.35274000e-03	-3.54640000e-02	5.47192000e-03
1.61266000e-02	-2.50267000e-03	1.79097000e-02
2.13392000e-02	1.65433000e-03	9.79587000e-03
3.35476000e-03	-2.43368000e-02	9.91114000e-03
2.43965000e-02	-3.15729000e-02	6.44685000e-03
3.53453000e-02	-9.14111000e-03	9.66920000e-03
1.26522000e-02	-2.95992000e-02	1.09684000e-02
1.47881000e-02	-5.62980000e-03	2.00727000e-03
3.42388000e-02	-1.25560000e-02	7.79112000e-03
8.97088000e-03	-3.75267000e-02	1.53268000e-02
1.49055000e-02	5.61414000e-03	2.01103000e-03
1.64372000e-02	-2.36621000e-02	1.41097000e-02
3.31543000e-02	8.06049000e-03	1.51341000e-02
3.07999000e-02	-1.94445000e-02	1.11787000e-02
2.35165000e-02	-2.02607000e-02	1.44363000e-02
2.24645000e-02	-1.83086000e-02	5.53975000e-03
2.11673000e-02	-1.17680000e-02	1.12788000e-02
1.67881000e-02	-2.41305000e-02	1.80921000e-02
1.73083000e-02	-1.57206000e-02	2.05072000e-03
1.91411000e-02	-1.27326000e-02	3.98533000e-03
3.58749000e-02	5.57591000e-03	1.70870000e-02
2.72263000e-02	-6.95109000e-03	7.96243000e-03
3.58519000e-02	1.41033000e-02	4.30416000e-03
3.95147000e-02	-5.46888000e-03	1.41753000e-02
3.05102000e-02	1.42927000e-02	9.93937000e-03
2.71511000e-02	-1.89436000e-02	1.54622000e-02
3.16793000e-02	1.66115000e-02	1.48401000e-02
2.65562000e-02	1.35772000e-02	1.68688000e-02
1.27711000e-02	5.45897000e-03	1.80267000e-02
2.15272000e-02	-3.45940000e-03	1.07446000e-02
1.78985000e-02	-1.97338000e-02	1.80192000e-02
3.66433000e-02	-1.59840000e-03	1.08761000e-02
-4.28091000e-03	-3.13234000e-02	5.44818000e-03
3.25527000e-02	-2.31400000e-02	6.69037000e-03
1.69077000e-02	9.40302000e-03	6.53051000e-03
7.16137000e-03	-3.16913000e-02	1.79482000e-02
3.38959000e-02	1.48938000e-02	1.19830000e-02
8.44844000e-03	-8.09075000e-03	8.80809000e-03
3.80521000e-02	-1.21438000e-02	6.41085000e-03
-5.93588000e-03	-3.73348000e-02	1.99964000e-03
2.26438000e-02	-2.59300000e-02	1.81003000e-02
3.31461000e-02	-1.63383000e-02	8.49682000e-03
1.38719000e-02	-3.67547000e-02	5.80346000e-03
3.65408000e-02	-1.61902000e-02	1.81003000e-02
3.17431000e-02	-7.58743000e-03	6.17409000e-03
1.44698000e-02	-2.62089000e-02	9.87328000e-03
-9.92173000e-03	-3.00403000e-02	1.45446000e-02
2.32695000e-02	-6.25162000e-03	1.80974000e-02
2.76634000e-02	-1.77809000e-02	5.40950000e-03
1.54695000e-02	-7.45357000e-03	7.97101000e-03
2.16628000e-02	9.84244000e-03	2.71014000e-03
1.66191000e-02	7.30314000e-03	1.78835000e-02
2.00560000e-02	3.56636000e-03	2.00440000e-03
3.24617000e-02	-2.33567000e-02	1.99972000e-03
1.25144000e-02	-3.52023000e-02	1.47892000e-02
3.60325000e-02	5.16785000e-03	1.29630000e-02
1.58802000e-02	1.43904000e-03	6.27055000e-03
3.07761000e-02	1.32839000e-04	7.38981000e-03
3.16425000e-02	-1.81596000e-02	5.26901000e-03
1.72412000e-02	-2.59439000e-02	1.99963000e-03
-6.18310000e-03	-3.61178000e-02	7.01751000e-03
3.73928000e-02	-1.40748000e-02	9.85074000e-03
6.34247000e-03	-1.85966000e-02	1.13883000e-02
-2.51445000e-03	-3.99035000e-02	8.24124000e-03
3.57963000e-02	3.82836000e-03	9.17194000e-03
2.57346000e-02	9.81030000e-03	1.79358000e-02
1.81046000e-02	-1.20125000e-02	1.80586000e-02
1.20243000e-02	-1.69708000e-02	1.35071000e-02
2.87376000e-02	2.23767000e-03	2.06458000e-03
2.92776000e-02	-6.87960000e-05	1.10950000e-02
3.49088000e-02	-3.19542000e-03	1.41073000e-02
-1.47726000e-02	-3.71548000e-02	1.59921000e-02
3.27577000e-02	1.09872000e-02	9.73049000e-03
2.27295000e-02	-1.24159000e-02	2.08522000e-03
3.20339000e-02	5.10688000e-03	1.99980000e-03
2.29878000e-02	-6.04715000e-03	2.54242000e-03
1.83035000e-02	1.18943000e-02	1.99994000e-03
8.42292000e-03	-2.78307000e-02	4.55727000e-03
3.28167000e-02	2.21761000e-03	4.65239000e-03
3.25910000e-02	-1.71009000e-02	1.80641000e-02
2.69702000e-02	-2.06774000e-02	1.14875000e-02
3.58394000e-02	3.24725000e-03	2.23499000e-03
1.62297000e-02	3.46564000e-03	1.66829000e-02
2.79036000e-02	1.23682000e-02	2.00031000e-03
3.91652000e-02	-8.06994000e-03	1.01775000e-02
2.78572000e-02	4.26883000e-03	9.66124000e-03
4.54148000e-03	-2.99495000e-02	1.08675000e-02
1.03345000e-02	-3.85865000e-02	6.16004000e-03
2.19804000e-02	-2.41646000e-02	1.99899000e-03
1.69856000e-02	-1.58450000e-02	1.78187000e-02
3.14139000e-02	-2.47410000e-02	1.75106000e-02
3.63232000e-03	-1.57409000e-02	1.35554000e-02
-1.10716000e-02	-3.84219000e-02	1.80965000e-02
2.90005000e-02	-2.32342000e-02	4.52176000e-03
2.13046000e-02	-3.38361000e-02	5.28709000e-03
1.10950000e-02	-3.00332000e-02	7.30972000e-03
3.59329000e-02	-5.20300000e-03	9.26412000e-03
3.33062000e-02	-4.19224000e-03	2.00301000e-03
3.53058000e-02	-9.33288000e-03	5.67442000e-03
-8.55586000e-03	-3.90587000e-02	4.48159000e-03
2.86632000e-02	-1.63453000e-02	1.81002000e-02
6.69507000e-03	-3.57219000e-02	1.25699000e-02
1.67603000e-02	-1.11238000e-02	1.22117000e-02
2.14416000e-02	1.25416000e-02	6.00825000e-03
9.71100000e-04	-3.41559000e-02	4.06238000e-03
2.00169000e-02	-3.10597000e-02	2.04595000e-03
2.87340000e-02	5.59511000e-03	1.45612000e-02
3.50297000e-02	-9.80410000e-03	1.76248000e-02
1.93189000e-02	1.34901000e-02	1.63901000e-02
2.59009000e-02	-2.33709000e-02	1.99874000e-03
2.75262000e-02	-2.32267000e-02	1.45175000e-02
3.91279000e-02	-8.25810000e-03	6.17579000e-03
2.06183000e-02	-2.68051000e-02	8.21582000e-03
2.98152000e-02	-2.66340000e-02	2.57978000e-03
3.81567000e-02	1.17139000e-02	1.04010000e-02
2.69356000e-02	-2.95569000e-02	2.00014000e-03
2.33279000e-02	-5.45372000e-03	7.74828000e-03
2.04337000e-02	3.15548000e-03	1.81001000e-02
2.37582000e-02	-2.40772000e-02	1.09902000e-02
2.70890000e-02	4.68484000e-03	1.80916000e-02
1.89656000e-02	-3.51667000e-02	1.14891000e-02
3.53738000e-02	-1.84909000e-02	1.50442000e-02
1.81897000e-02	-1.95136000e-02	1.16832000e-02
2.37627000e-02	-1.47515000e-02	1.04397000e-02
1.77356000e-02	-3.57445000e-02	5.58560000e-03
8.17916000e-03	-2.41652000e-02	6.13540000e-03
-1.75349000e-02	-3.58854000e-02	1.30389000e-02
2.23057000e-02	-2.01782000e-02	2.00752000e-03
-5.43462000e-04	-3.68151000e-02	6.63786000e-03
1.93459000e-02	-3.50017000e-02	1.99921000e-03
2.54502000e-02	1.85172000e-02	1.43739000e-02
3.40946000e-02	-3.77825000e-03	1.81001000e-02
2.30660000e-02	6.16803000e-03	3.43812000e-03
9.99098000e-03	-2.78797000e-02	1.34472000e-02
1.87483000e-02	-1.70949000e-02	6.92743000e-03
2.49962000e-02	-2.62032000e-02	4.67231000e-03
3.98394000e-02	3.42659000e-03	1.79713000e-02
3.17673000e-02	3.77079000e-03	8.72030000e-03
2.20595000e-02	-3.33222000e-02	9.18130000e-03
2.89906000e-02	1.59160000e-02	3.49482000e-03
2.21690000e-02	-1.89292000e-02	1.09137000e-02
1.18257000e-02	-3.12727000e-02	1.45050000e-02
1.64857000e-02	-2.55345000e-02	5.94652000e-03
1.53348000e-02	-3.28583000e-02	1.26201000e-02
3.87690000e-03	-3.97936000e-02	2.05823000e-03
-1.01584000e-02	-3.37146000e-02	1.66233000e-02
1.56511000e-02	-3.67853000e-02	1.81005000e-02
2.65145000e-02	-4.48981000e-03	4.89072000e-03
3.97002000e-02	3.96034000e-03	1.40097000e-02
1.87949000e-02	-5.61892000e-03	5.99605000e-03
1.39647000e-02	-2.12976000e-02	1.80939000e-02
3.89187000e-02	7.51359000e-03	7.37556000e-03
1.42495000e-02	-1.34383000e-02	1.58682000e-02
1.60402000e-02	-3.65875000e-02	9.16110000e-03
2.56103000e-02	-2.66484000e-02	1.34306000e-02
5.69930000e-03	-3.95538000e-02	1.31315000e-02
2.23548000e-02	-1.79727000e-02	1.76454000e-02
1.51233000e-02	-3.70162000e-02	1.99985000e-03
3.41096000e-02	1.05707000e-02	1.80996000e-02
2.81532000e-02	1.09894000e-02	1.42553000e-02
3.65636000e-02	1.28339000e-02	1.41371000e-02
3.99007000e-02	-9.60720000e-04	7.96396000e-03
2.03637000e-02	-9.23104000e-03	6.71565000e-03
2.94418000e-02	-5.94359000e-03	1.80739000e-02
2.35383000e-02	8.26855000e-03	1.11360000e-02
1.97674000e-02	-1.57442000e-02	1.06029000e-02
1.64340000e-02	-2.27317000e-02	1.00848000e-02
3.30572000e-02	1.84793000e-02	1.80998000e-02
3.58529000e-02	-1.75118000e-02	1.11965000e-02
2.94122000e-02	-2.08388000e-02	7.69719000e-03
3.26614000e-02	-2.15858000e-03	1.06343000e-02
-1.07274000e-02	-3.85176000e-02	1.14551000e-02
3.87365000e-02	9.52812000e-03	1.47287000e-02
2.52998000e-02	-1.97342000e-02	7.97737000e-03
2.42729000e-02	-1.63345000e-02	1.43752000e-02
3.79632000e-02	-1.25153000e-02	1.74175000e-02
5.41515000e-04	-3.30166000e-02	1.49030000e-02
3.10420000e-02	-1.26617000e-02	1.45489000e-02
1.63513000e-02	9.62690000e-03	1.42003000e-02
3.27512000e-02	9.04168000e-03	2.02043000e-03
2.78929000e-02	1.58419000e-02	7.34073000e-03
2.86940000e-02	1.53280000e-03	1.47142000e-02
4.48952000e-03	-3.36667000e-02	1.51965000e-02
9.77872000e-03	-4.95702000e-03	5.23011000e-03
[...]
POINT_DATA 469
SCALARS Radius double 1
LOOKUP_TABLE default
2.00000000e-03
2.00000000e-03
2.00000000e-03
2.00000000e-03
2.00000000e-03
2.00000000e-03
2.00000000e-03
2.00000000e-03
2.00000000e-03
2.00000000e-03
2.00000000e-03
2.00000000e-03
2.00000000e-03
2.00000000e-03
2.00000000e-03
2.00000000e-03
2.00000000e-03
2.00000000e-03
2.00000000e-03
2.00000000e-03
2.00000000e-03
2.00000000e-03
2.00000000e-03
2.00000000e-03
2.00000000e-03
2.00000000e-03
2.00000000e-03
2.00000000e-03
2.00000000e-03
2.00000000e-03
2.00000000e-03
2.00000000e-03
2.00000000e-03
2.00000000e-03
2.00000000e-03
2.00000000e-03
2.00000000e-03
2.00000000e-03
2.00000000e-03
2.00000000e-03
2.00000000e-03
2.00000000e-03
2.00000000e-03
2.00000000e-03
2.00000000e-03
2.00000000e-03
2.00000000e-03
2.00000000e-03
2.00000000e-03
2.00000000e-03
2.00000000e-03
2.00000000e-03
2.00000000e-03
2.00000000e-03
2.00000000e-03
2.00000000e-03
2.00000000e-03
2.00000000e-03
2.00000000e-03
2.00000000e-03
2.00000000e-03
2.00000000e-03
2.00000000e-03
2.00000000e-03
2.00000000e-03
2.00000000e-03
2.00000000e-03
2.00000000e-03
2.00000000e-03
2.00000000e-03
2.00000000e-03
2.00000000e-03
2.00000000e-03
2.00000000e-03
2.00000000e-03
2.00000000e-03
2.00000000e-03
2.00000000e-03
2.00000000e-03
2.00000000e-03
2.00000000e-03
2.00000000e-03
2.00000000e-03
2.00000000e-03
2.00000000e-03
2.00000000e-03
2.00000000e-03
2.00000000e-03
2.00000000e-03
2.00000000e-03
2.00000000e-03
2.00000000e-03
2.00000000e-03
2.00000000e-03
2.00000000e-03
2.00000000e-03
2.00000000e-03
2.00000000e-03
2.00000000e-03
2.00000000e-03
2.00000000e-03
2.00000000e-03
2.00000000e-03
2.00000000e-03
2.00000000e-03
2.00000000e-03
2.00000000e-03
2.00000000e-03
2.00000000e-03
2.00000000e-03
2.00000000e-03
2.00000000e-03
2.00000000e-03
2.00000000e-03
2.00000000e-03
2.00000000e-03
2.00000000e-03
2.00000000e-03
2.00000000e-03
2.00000000e-03
2.00000000e-03
2.00000000e-03
2.00000000e-03
2.00000000e-03
2.00000000e-03
2.00000000e-03
2.00000000e-03
2.00000000e-03
2.00000000e-03
2.00000000e-03
2.00000000e-03
2.00000000e-03
2.00000000e-03
2.00000000e-03
2.00000000e-03
2.00000000e-03
2.00000000e-03
2.00000000e-03
2.00000000e-03
2.00000000e-03
2.00000000e-03
2.00000000e-03
2.00000000e-03
2.00000000e-03
2.00000000e-03
2.00000000e-03
2.00000000e-03
2.00000000e-03
2.00000000e-03
2.00000000e-03
2.00000000e-03
2.00000000e-03
2.00000000e-03
2.00000000e-03
2.00000000e-03
2.00000000e-03
2.00000000e-03
2.00000000e-03
2.00000000e-03
2.00000000e-03
2.00000000e-03
2.00000000e-03
2.00000000e-03
2.00000000e-03
2.00000000e-03
2.00000000e-03
2.00000000e-03
2.00000000e-03
2.00000000e-03
2.00000000e-03
2.00000000e-03
2.00000000e-03
2.00000000e-03
2.00000000e-03
2.00000000e-03
2.00000000e-03
2.00000000e-03
2.00000000e-03
2.00000000e-03
2.00000000e-03
2.00000000e-03
2.00000000e-03
2.00000000e-03
2.00000000e-03
2.00000000e-03
2.00000000e-03
2.00000000e-03
2.00000000e-03
2.00000000e-03
2.00000000e-03
2.00000000e-03
2.00000000e-03
2.00000000e-03
2.00000000e-03
2.00000000e-03
2.00000000e-03
2.00000000e-03
2.00000000e-03
2.00000000e-03
2.00000000e-03
2.00000000e-03
2.00000000e-03
2.00000000e-03
2.00000000e-03
2.00000000e-03
2.00000000e-03
2.00000000e-03
2.00000000e-03
2.00000000e-03
2.00000000e-03
2.00000000e-03
2.00000000e-03
2.00000000e-03
2.00000000e-03
2.00000000e-03
2.00000000e-03
2.00000000e-03
2.00000000e-03
2.00000000e-03
2.00000000e-03
2.00000000e-03
2.00000000e-03
2.00000000e-03
2.00000000e-03
2.00000000e-03
2.00000000e-03
2.00000000e-03
2.00000000e-03
2.00000000e-03
2.00000000e-03
2.00000000e-03
2.00000000e-03
2.00000000e-03
2.00000000e-03
2.00000000e-03
2.00000000e-03
2.00000000e-03
2.00000000e-03
2.00000000e-03
2.00000000e-03
2.00000000e-03
2.00000000e-03
2.00000000e-03
2.00000000e-03
2.00000000e-03
2.00000000e-03
2.00000000e-03
2.00000000e-03
2.00000000e-03
2.00000000e-03
2.00000000e-03
2.00000000e-03
2.00000000e-03
2.00000000e-03
2.00000000e-03
2.00000000e-03
2.00000000e-03
2.00000000e-03
2.00000000e-03
2.00000000e-03
2.00000000e-03
2.00000000e-03
2.00000000e-03
2.00000000e-03
2.00000000e-03
2.00000000e-03
2.00000000e-03
2.00000000e-03
2.00000000e-03
2.00000000e-03
2.00000000e-03
2.00000000e-03
2.00000000e-03
2.00000000e-03
2.00000000e-03
2.00000000e-03
2.00000000e-03
2.00000000e-03
2.00000000e-03
2.00000000e-03
2.00000000e-03
2.00000000e-03
2.00000000e-03
2.00000000e-03
2.00000000e-03
2.00000000e-03
2.00000000e-03
2.00000000e-03
2.00000000e-03
2.00000000e-03
2.00000000e-03
2.00000000e-03
2.00000000e-03
2.00000000e-03
2.00000000e-03
2.00000000e-03
2.00000000e-03
2.00000000e-03
2.00000000e-03
2.00000000e-03
2.00000000e-03
2.00000000e-03
2.00000000e-03
2.00000000e-03
2.00000000e-03
2.00000000e-03
2.00000000e-03
2.00000000e-03
2.00000000e-03
2.00000000e-03
2.00000000e-03
2.00000000e-03
2.00000000e-03
2.00000000e-03
2.00000000e-03
2.00000000e-03
2.00000000e-03
2.00000000e-03
2.00000000e-03
2.00000000e-03
2.00000000e-03
2.00000000e-03
2.00000000e-03
2.00000000e-03
2.00000000e-03
2.00000000e-03
2.00000000e-03
2.00000000e-03
2.00000000e-03
2.00000000e-03
2.00000000e-03
2.00000000e-03
2.00000000e-03
2.00000000e-03
2.00000000e-03
2.00000000e-03
2.00000000e-03
2.00000000e-03
2.00000000e-03
2.00000000e-03
2.00000000e-03
2.00000000e-03
2.00000000e-03
2.00000000e-03
2.00000000e-03
2.00000000e-03
2.00000000e-03
2.00000000e-03
2.00000000e-03
2.00000000e-03
2.00000000e-03
2.00000000e-03
2.00000000e-03
2.00000000e-03
2.00000000e-03
2.00000000e-03
2.00000000e-03
2.00000000e-03
2.00000000e-03
2.00000000e-03
2.00000000e-03
2.00000000e-03
2.00000000e-03
2.00000000e-03
2.00000000e-03
2.00000000e-03
2.00000000e-03
2.00000000e-03
2.00000000e-03
2.00000000e-03
2.00000000e-03
2.00000000e-03
2.00000000e-03
2.00000000e-03
2.00000000e-03
2.00000000e-03
2.00000000e-03
2.00000000e-03
2.00000000e-03
2.00000000e-03
2.00000000e-03
2.00000000e-03
2.00000000e-03
2.00000000e-03
2.00000000e-03
2.00000000e-03
2.00000000e-03
2.00000000e-03
2.00000000e-03
2.00000000e-03
2.00000000e-03
2.00000000e-03
2.00000000e-03
2.00000000e-03
2.00000000e-03
2.00000000e-03
2.00000000e-03
2.00000000e-03
2.00000000e-03
2.00000000e-03
2.00000000e-03
2.00000000e-03
2.00000000e-03
2.00000000e-03
2.00000000e-03
2.00000000e-03
2.00000000e-03
2.00000000e-03
2.00000000e-03
2.00000000e-03
2.00000000e-03
2.00000000e-03
2.00000000e-03
2.00000000e-03
2.00000000e-03
2.00000000e-03
2.00000000e-03
2.00000000e-03
2.00000000e-03
2.00000000e-03
2.00000000e-03
2.00000000e-03
2.00000000e-03
2.00000000e-03
2.00000000e-03
2.00000000e-03
2.00000000e-03
2.00000000e-03
2.00000000e-03
2.00000000e-03
2.00000000e-03
2.00000000e-03
2.00000000e-03
2.00000000e-03
2.00000000e-03
2.00000000e-03
2.00000000e-03
2.00000000e-03
2.00000000e-03
2.00000000e-03
2.00000000e-03
2.00000000e-03
2.00000000e-03
2.00000000e-03
2.00000000e-03
2.00000000e-03
2.00000000e-03
2.00000000e-03
2.00000000e-03
2.00000000e-03
2.00000000e-03
2.00000000e-03
2.00000000e-03
2.00000000e-03
2.00000000e-03
2.00000000e-03
2.00000000e-03
2.00000000e-03
2.00000000e-03
2.00000000e-03
2.00000000e-03
2.00000000e-03
2.00000000e-03
2.00000000e-03
2.00000000e-03
2.00000000e-03
2.00000000e-03
2.00000000e-03
2.00000000e-03
