# vtk DataFile Version 2.0
Particle data
ASCII
DATASET POLYDATA
POINTS 469 double
3.28514000e-02	-1.48748000e-02	8.85672000e-03
2.39215000e-02	-2.24158000e-02	1.35613000e-02
1.29539000e-02	-2.83834000e-02	5.71210000e-03
2.65957000e-02	1.57366000e-02	1.75966000e-02
1.93687000e-02	-2.10822000e-02	2.54148000e-03
3.75299000e-02	-1.37721000e-02	2.50832000e-03
2.97369000e-02	-1.54127000e-02	1.13653000e-02
2.45092000e-02	5.30085000e-04	1.78870000e-02
1.90312000e-02	-3.10588000e-02	1.81006000e-02
-1.49434000e-02	-3.23444000e-02	1.73214000e-02
3.91670000e-02	-8.02628000e-03	1.79635000e-02
2.53851000e-02	-1.91610000e-02	1.81008000e-02
7.61070000e-03	-3.92554000e-02	1.19490000e-02
1.32818000e-02	-2.53389000e-02	2.98634000e-03
3.83060000e-02	-1.12995000e-02	1.44644000e-02
1.59185000e-02	-3.53455000e-03	1.47529000e-02
2.77689000e-02	1.20675000e-02	1.44313000e-02
2.39264000e-02	-2.72676000e-02	2.00061000e-03
2.85349000e-02	4.38690000e-03	1.28212000e-02
3.77780000e-02	-4.81361000e-03	1.11160000e-02
3.62019000e-02	-6.96821000e-04	1.99912000e-03
1.41749000e-02	-3.42459000e-02	1.81009000e-02
4.79224000e-03	-9.83166000e-03	5.61927000e-03
1.48879000e-02	-1.60025000e-02	2.00199000e-03
8.69102000e-03	-2.59891000e-02	2.24054000e-03
-2.27719000e-03	-1.89422000e-02	1.07624000e-02
3.91711000e-02	7.35149000e-03	1.38255000e-02
2.01657000e-02	-3.03926000e-02	1.37198000e-02
3.27480000e-02	1.80131000e-02	1.48373000e-02
2.21692000e-02	-1.07449000e-02	1.38041000e-02
1.89419000e-02	-2.87994000e-02	1.01882000e-02
2.92816000e-02	-2.72388000e-02	2.09484000e-03
2.50200000e-02	-2.59592000e-02	5.61832000e-03
5.75559000e-03	-2.89056000e-02	1.79907000e-02
-6.73280000e-03	-3.78317000e-02	1.13528000e-02
1.42628000e-02	-3.02860000e-02	1.15303000e-02
3.77625000e-02	-1.28570000e-02	6.67406000e-03
3.43681000e-02	1.05978000e-02	1.04267000e-02
2.67357000e-02	-1.80804000e-02	1.07659000e-02
1.39809000e-02	-2.15261000e-02	1.99992000e-03
3.52037000e-02	7.52547000e-03	8.00691000e-03
2.87302000e-02	-2.70269000e-02	1.51552000e-02
-8.91203000e-03	-3.79893000e-02	2.00049000e-03
2.63882000e-02	-1.16799000e-02	1.43340000e-02
9.81822000e-03	-5.84493000e-03	1.45004000e-02
3.62875000e-02	2.36669000e-04	1.13172000e-02
3.05761000e-02	-4.33503000e-03	1.44938000e-02
2.66988000e-02	-6.44307000e-03	6.39188000e-03
1.70122000e-02	-1.32868000e-02	1.45692000e-02
2.54153000e-02	-1.33727000e-02	1.80947000e-02
2.18654000e-02	-9.62094000e-03	2.05160000e-03
1.89020000e-02	-1.16341000e-02	5.59257000e-03
2.62003000e-02	1.17882000e-02	1.81001000e-02
2.39709000e-02	-6.75608000e-04	5.79134000e-03
5.22531000e-03	-1.03030000e-02	1.26466000e-02
3.54884000e-02	1.52071000e-02	1.40527000e-02
-1.70739000e-02	-3.60593000e-02	6.81203000e-03
3.32823000e-02	-1.47166000e-03	1.51813000e-02
-8.10694000e-04	-2.79734000e-02	1.24400000e-02
-2.31075000e-03	-2.59847000e-02	1.55867000e-02
-2.16607000e-03	-3.65647000e-02	1.80978000e-02
4.43867000e-03	-2.82837000e-02	9.94964000e-03
1.83026000e-02	-1.58831000e-02	1.73440000e-02
2.67919000e-02	1.13907000e-02	1.06121000e-02
1.30877000e-02	-3.22598000e-02	3.93162000e-03
3.99172000e-02	-1.35621000e-03	6.16018000e-03
-1.28896000e-02	-3.78490000e-02	2.50767000e-03
2.32282000e-02	-2.26544000e-02	1.81002000e-02
-2.16293000e-03	-2.57625000e-02	5.91636000e-03
4.26286000e-03	-3.97051000e-02	9.80582000e-03
3.85305000e-02	1.03464000e-02	6.18771000e-03
1.55271000e-02	-3.47726000e-02	1.99917000e-03
3.29642000e-02	-9.57840000e-03	1.81001000e-02
3.65184000e-02	3.79621000e-03	8.60234000e-03
3.22528000e-02	-2.34774000e-02	5.99798000e-03
3.95243000e-02	6.09841000e-03	1.80782000e-02
2.92990000e-02	4.84991000e-03	7.40234000e-03
2.61170000e-02	-1.44782000e-02	9.14238000e-03
3.11896000e-03	-3.98702000e-02	1.80882000e-02
9.51321000e-03	-1.44218000e-02	1.68578000e-02
3.26107000e-02	-6.56733000e-04	5.69562000e-03
4.58367000e-03	-3.08680000e-02	6.89980000e-03
8.81335000e-04	-3.03176000e-02	2.03404000e-03
1.28384000e-03	-2.70856000e-02	1.81000000e-02
-1.31522000e-03	-3.36162000e-02	2.57426000e-03
3.99240000e-02	-2.17016000e-03	2.00659000e-03
2.99407000e-02	-2.22453000e-02	1.48689000e-02
1.64694000e-02	5.02221000e-03	1.21114000e-02
2.93394000e-03	-3.69880000e-02	6.36962000e-03
1.57080000e-02	-3.73224000e-03	8.78273000e-03
3.62333000e-02	1.58260000e-03	5.28459000e-03
2.86493000e-02	-1.20704000e-02	1.99949000e-03
1.58477000e-02	-3.41216000e-02	6.30021000e-03
3.89889000e-02	8.43019000e-03	9.66860000e-03
1.70294000e-02	-2.62862000e-02	7.17400000e-03
2.00402000e-02	-3.45985000e-02	8.37530000e-03
2.03500000e-02	8.46513000e-03	6.91530000e-03
3.86256000e-03	-2.10715000e-02	1.15224000e-02
1.28519000e-02	-2.30952000e-02	1.80828000e-02
1.34318000e-02	-2.27051000e-02	7.80402000e-03
5.68312000e-03	-1.98842000e-02	6.92375000e-03
6.93853000e-03	-1.38173000e-02	8.84501000e-03
2.75018000e-02	8.12942000e-03	1.37832000e-02
7.85882000e-03	-3.92064000e-02	1.73077000e-02
7.39958000e-04	-2.66382000e-02	8.92794000e-03
2.42208000e-02	-6.39022000e-03	1.99999000e-03
1.79851000e-02	-3.26045000e-03	2.10481000e-03
1.79971000e-02	-7.76599000e-03	6.05812000e-03
-1.24172000e-02	-3.38496000e-02	2.00094000e-03
2.16226000e-02	-1.89705000e-02	5.09122000e-03
1.43922000e-02	-1.59896000e-03	5.62359000e-03
3.64167000e-02	3.58097000e-03	1.81011000e-02
3.32633000e-02	-3.34383000e-03	1.14949000e-02
2.44290000e-02	1.02811000e-02	1.99983000e-03
3.42508000e-03	-3.35672000e-02	1.46415000e-02
6.68420000e-04	-2.34515000e-02	2.16107000e-03
3.78435000e-02	1.25463000e-02	1.00747000e-02
-7.34913000e-03	-2.93489000e-02	6.09796000e-03
1.92065000e-02	-2.48422000e-02	1.07066000e-02
2.97968000e-02	-2.66590000e-02	6.52759000e-03
3.13327000e-02	-8.42707000e-03	1.99982000e-03
1.38313000e-02	-1.96920000e-02	1.56920000e-02
3.97742000e-02	-4.09635000e-03	1.75347000e-02
3.39015000e-04	-3.99906000e-02	5.87689000e-03
1.16659000e-02	-3.82490000e-02	1.80767000e-02
3.70711000e-02	-3.67444000e-03	4.57177000e-03
3.63592000e-02	-1.63830000e-02	5.41043000e-03
2.56345000e-02	-1.95096000e-02	7.19705000e-03
3.06809000e-02	1.20829000e-02	9.98293000e-03
2.68360000e-02	6.49831000e-03	2.00433000e-03
3.38959000e-02	1.05208000e-02	5.70215000e-03
1.41906000e-02	-3.73942000e-02	4.70562000e-03
3.30579000e-02	1.25316000e-03	1.81004000e-02
2.48669000e-02	-2.62089000e-02	1.27165000e-02
1.78738000e-02	-1.56767000e-02	9.29839000e-03
-3.12716000e-03	-3.97783000e-02	1.33307000e-02
1.94653000e-02	-2.81919000e-02	3.88366000e-03
3.36877000e-02	-1.47708000e-02	2.02398000e-03
1.01643000e-02	-1.67946000e-02	1.37026000e-02
3.44443000e-02	1.09527000e-02	1.77337000e-02
-9.07201000e-04	-3.34959000e-02	1.58504000e-02
3.44892000e-02	-5.37040000e-03	1.99979000e-03
3.55991000e-02	-4.65253000e-03	1.44663000e-02
3.63235000e-02	1.36886000e-02	5.96726000e-03
3.17049000e-02	-1.10697000e-02	8.40666000e-03
3.95218000e-02	-6.11066000e-03	2.55812000e-03
1.66991000e-02	7.20472000e-03	8.74612000e-03
3.87221000e-02	-9.98873000e-03	1.99957000e-03
1.66550000e-02	-7.48465000e-03	9.98174000e-03
3.84259000e-03	-2.40307000e-02	1.77548000e-02
3.25007000e-02	-8.03214000e-03	1.09748000e-02
1.16598000e-02	-1.09377000e-02	1.59447000e-02
3.52832000e-02	-1.87437000e-02	1.14301000e-02
3.95959000e-02	3.47129000e-03	1.46983000e-02
2.51983000e-02	-7.20023000e-03	1.13048000e-02
2.60212000e-02	-1.29147000e-03	1.08907000e-02
3.44552000e-02	-2.01646000e-02	5.58193000e-03
1.70232000e-02	-1.93771000e-02	5.29562000e-03
4.40599000e-03	-3.97431000e-02	1.43005000e-02
2.81953000e-02	-5.94687000e-03	2.01373000e-03
1.96538000e-02	-3.09570000e-02	6.76750000e-03
3.55540000e-02	-1.83064000e-02	1.99829000e-03
-3.35035000e-04	-3.79251000e-02	9.23468000e-03
3.06628000e-02	1.22324000e-02	1.81002000e-02
3.69164000e-03	-2.62685000e-02	2.01420000e-03
2.28566000e-02	-1.86274000e-02	1.28474000e-02
2.28012000e-02	-8.41966000e-03	7.15406000e-03
3.52919000e-02	-8.11310000e-03	4.79764000e-03
2.97173000e-02	1.99908000e-02	1.80967000e-02
1.22870000e-02	-8.47141000e-03	1.27143000e-02
3.67444000e-02	-1.56723000e-02	9.32674000e-03
-6.85507000e-03	-3.31078000e-02	9.87666000e-03
2.82587000e-02	-4.59939000e-03	1.11030000e-02
2.69617000e-02	-1.96105000e-02	1.44532000e-02
2.71166000e-02	-1.28850000e-02	5.60323000e-03
3.07403000e-02	-1.91031000e-02	1.25322000e-02
2.51895000e-02	-3.10601000e-02	1.99904000e-03
8.46739000e-03	-3.53340000e-02	1.81004000e-02
3.33718000e-02	-2.20182000e-02	1.80961000e-02
1.16833000e-02	-1.16436000e-02	5.56474000e-03
2.98343000e-02	1.54424000e-02	1.38456000e-02
1.83559000e-03	-3.33779000e-02	5.04502000e-03
2.26393000e-02	-1.62526000e-02	1.81000000e-02
2.25143000e-02	1.07724000e-02	9.41547000e-03
8.78752000e-03	-2.96772000e-02	1.09069000e-02
3.33328000e-02	-2.19859000e-02	9.54877000e-03
3.56661000e-02	-8.49968000e-03	1.33751000e-02
2.66171000e-02	-2.97769000e-02	1.31622000e-02
2.82490000e-02	-5.48745000e-03	1.81003000e-02
3.31975000e-02	-2.22963000e-02	1.99965000e-03
1.88195000e-02	3.85074000e-03	1.71978000e-02
4.12579000e-03	-2.96067000e-02	1.37397000e-02
6.08673000e-03	-7.31999000e-03	8.54347000e-03
2.97064000e-02	1.56244000e-02	8.18086000e-03
1.04603000e-02	-2.45908000e-02	5.75037000e-03
2.60254000e-02	4.22832000e-03	1.80375000e-02
7.41090000e-03	-3.33516000e-02	1.01166000e-02
2.03267000e-02	-7.45292000e-03	1.24750000e-02
2.56004000e-02	-1.05124000e-02	9.09927000e-03
3.85625000e-03	-1.57952000e-02	1.74404000e-02
3.96774000e-02	4.68386000e-03	1.08884000e-02
3.59216000e-02	-1.54525000e-03	7.75644000e-03
1.94943000e-02	2.36715000e-03	9.22391000e-03
1.24030000e-02	-3.79890000e-02	1.16941000e-02
1.65289000e-02	6.84574000e-03	1.58488000e-02
3.10658000e-02	-3.49185000e-03	8.15624000e-03
2.75957000e-02	-1.69600000e-03	1.48814000e-02
3.87405000e-02	9.95012000e-03	1.73392000e-02
1.66394000e-02	-2.90247000e-02	1.50190000e-02
3.26344000e-02	5.58595000e-03	1.43570000e-02
-6.72947000e-03	-3.76931000e-02	1.53501000e-02
1.34612000e-02	-1.24850000e-04	2.00183000e-03
-7.08560000e-03	-3.40405000e-02	1.37595000e-02
8.59899000e-03	-1.26113000e-02	1.27569000e-02
2.16473000e-02	-2.61959000e-02	1.50888000e-02
1.15299000e-02	-2.87962000e-02	1.99875000e-03
[...]
POINT_DATA 469
SCALARS Radius double 1
LOOKUP_TABLE default
2.00000000e-03
2.00000000e-03
2.00000000e-03
2.00000000e-03
2.00000000e-03
2.00000000e-03
2.00000000e-03
2.00000000e-03
2.00000000e-03
2.00000000e-03
2.00000000e-03
2.00000000e-03
2.00000000e-03
2.00000000e-03
2.00000000e-03
2.00000000e-03
2.00000000e-03
2.00000000e-03
2.00000000e-03
2.00000000e-03
2.00000000e-03
2.00000000e-03
2.00000000e-03
2.00000000e-03
2.00000000e-03
2.00000000e-03
2.00000000e-03
2.00000000e-03
2.00000000e-03
2.00000000e-03
2.00000000e-03
2.00000000e-03
2.00000000e-03
2.00000000e-03
2.00000000e-03
2.00000000e-03
2.00000000e-03
2.00000000e-03
2.00000000e-03
2.00000000e-03
2.00000000e-03
2.00000000e-03
2.00000000e-03
2.00000000e-03
2.00000000e-03
2.00000000e-03
2.00000000e-03
2.00000000e-03
2.00000000e-03
2.00000000e-03
2.00000000e-03
2.00000000e-03
2.00000000e-03
2.00000000e-03
2.00000000e-03
2.00000000e-03
2.00000000e-03
2.00000000e-03
2.00000000e-03
2.00000000e-03
2.00000000e-03
2.00000000e-03
2.00000000e-03
2.00000000e-03
2.00000000e-03
2.00000000e-03
2.00000000e-03
2.00000000e-03
2.00000000e-03
2.00000000e-03
2.00000000e-03
2.00000000e-03
2.00000000e-03
2.00000000e-03
2.00000000e-03
2.00000000e-03
2.00000000e-03
2.00000000e-03
2.00000000e-03
2.00000000e-03
2.00000000e-03
2.00000000e-03
2.00000000e-03
2.00000000e-03
2.00000000e-03
2.00000000e-03
2.00000000e-03
2.00000000e-03
2.00000000e-03
2.00000000e-03
2.00000000e-03
2.00000000e-03
2.00000000e-03
2.00000000e-03
2.00000000e-03
2.00000000e-03
2.00000000e-03
2.00000000e-03
2.00000000e-03
2.00000000e-03
2.00000000e-03
2.00000000e-03
2.00000000e-03
2.00000000e-03
2.00000000e-03
2.00000000e-03
2.00000000e-03
2.00000000e-03
2.00000000e-03
2.00000000e-03
2.00000000e-03
2.00000000e-03
2.00000000e-03
2.00000000e-03
2.00000000e-03
2.00000000e-03
2.00000000e-03
2.00000000e-03
2.00000000e-03
2.00000000e-03
2.00000000e-03
2.00000000e-03
2.00000000e-03
2.00000000e-03
2.00000000e-03
2.00000000e-03
2.00000000e-03
2.00000000e-03
2.00000000e-03
2.00000000e-03
2.00000000e-03
2.00000000e-03
2.00000000e-03
2.00000000e-03
2.00000000e-03
2.00000000e-03
2.00000000e-03
2.00000000e-03
2.00000000e-03
2.00000000e-03
2.00000000e-03
2.00000000e-03
2.00000000e-03
2.00000000e-03
2.00000000e-03
2.00000000e-03
2.00000000e-03
2.00000000e-03
2.00000000e-03
2.00000000e-03
2.00000000e-03
2.00000000e-03
2.00000000e-03
2.00000000e-03
2.00000000e-03
2.00000000e-03
2.00000000e-03
2.00000000e-03
2.00000000e-03
2.00000000e-03
2.00000000e-03
2.00000000e-03
2.00000000e-03
2.00000000e-03
2.00000000e-03
2.00000000e-03
2.00000000e-03
2.00000000e-03
2.00000000e-03
2.00000000e-03
2.00000000e-03
2.00000000e-03
2.00000000e-03
2.00000000e-03
2.00000000e-03
2.00000000e-03
2.00000000e-03
2.00000000e-03
2.00000000e-03
2.00000000e-03
2.00000000e-03
2.00000000e-03
2.00000000e-03
2.00000000e-03
2.00000000e-03
2.00000000e-03
2.00000000e-03
2.00000000e-03
2.00000000e-03
2.00000000e-03
2.00000000e-03
2.00000000e-03
2.00000000e-03
2.00000000e-03
2.00000000e-03
2.00000000e-03
2.00000000e-03
2.00000000e-03
2.00000000e-03
2.00000000e-03
2.00000000e-03
2.00000000e-03
2.00000000e-03
2.00000000e-03
2.00000000e-03
2.00000000e-03
2.00000000e-03
2.00000000e-03
2.00000000e-03
2.00000000e-03
2.00000000e-03
2.00000000e-03
2.00000000e-03
2.00000000e-03
2.00000000e-03
2.00000000e-03
2.00000000e-03
2.00000000e-03
2.00000000e-03
2.00000000e-03
2.00000000e-03
2.00000000e-03
2.00000000e-03
2.00000000e-03
2.00000000e-03
2.00000000e-03
2.00000000e-03
2.00000000e-03
2.00000000e-03
2.00000000e-03
2.00000000e-03
2.00000000e-03
2.00000000e-03
2.00000000e-03
2.00000000e-03
2.00000000e-03
2.00000000e-03
2.00000000e-03
2.00000000e-03
2.00000000e-03
2.00000000e-03
2.00000000e-03
2.00000000e-03
2.00000000e-03
2.00000000e-03
2.00000000e-03
2.00000000e-03
2.00000000e-03
2.00000000e-03
2.00000000e-03
2.00000000e-03
2.00000000e-03
2.00000000e-03
2.00000000e-03
2.00000000e-03
2.00000000e-03
2.00000000e-03
2.00000000e-03
2.00000000e-03
2.00000000e-03
2.00000000e-03
2.00000000e-03
2.00000000e-03
2.00000000e-03
2.00000000e-03
2.00000000e-03
2.00000000e-03
2.00000000e-03
2.00000000e-03
2.00000000e-03
2.00000000e-03
2.00000000e-03
2.00000000e-03
2.00000000e-03
2.00000000e-03
2.00000000e-03
2.00000000e-03
2.00000000e-03
2.00000000e-03
2.00000000e-03
2.00000000e-03
2.00000000e-03
2.00000000e-03
2.00000000e-03
2.00000000e-03
2.00000000e-03
2.00000000e-03
2.00000000e-03
2.00000000e-03
2.00000000e-03
2.00000000e-03
2.00000000e-03
2.00000000e-03
2.00000000e-03
2.00000000e-03
2.00000000e-03
2.00000000e-03
2.00000000e-03
2.00000000e-03
2.00000000e-03
2.00000000e-03
2.00000000e-03
2.00000000e-03
2.00000000e-03
2.00000000e-03
2.00000000e-03
2.00000000e-03
2.00000000e-03
2.00000000e-03
2.00000000e-03
2.00000000e-03
2.00000000e-03
2.00000000e-03
2.00000000e-03
2.00000000e-03
2.00000000e-03
2.00000000e-03
2.00000000e-03
2.00000000e-03
2.00000000e-03
2.00000000e-03
2.00000000e-03
2.00000000e-03
2.00000000e-03
2.00000000e-03
2.00000000e-03
2.00000000e-03
2.00000000e-03
2.00000000e-03
2.00000000e-03
2.00000000e-03
2.00000000e-03
2.00000000e-03
2.00000000e-03
2.00000000e-03
2.00000000e-03
2.00000000e-03
2.00000000e-03
2.00000000e-03
2.00000000e-03
2.00000000e-03
2.00000000e-03
2.00000000e-03
2.00000000e-03
2.00000000e-03
2.00000000e-03
2.00000000e-03
2.00000000e-03
2.00000000e-03
2.00000000e-03
2.00000000e-03
2.00000000e-03
2.00000000e-03
2.00000000e-03
2.00000000e-03
2.00000000e-03
2.00000000e-03
2.00000000e-03
2.00000000e-03
2.00000000e-03
2.00000000e-03
2.00000000e-03
2.00000000e-03
2.00000000e-03
2.00000000e-03
2.00000000e-03
2.00000000e-03
2.00000000e-03
2.00000000e-03
2.00000000e-03
2.00000000e-03
2.00000000e-03
2.00000000e-03
2.00000000e-03
2.00000000e-03
2.00000000e-03
2.00000000e-03
2.00000000e-03
2.00000000e-03
2.00000000e-03
2.00000000e-03
2.00000000e-03
2.00000000e-03
2.00000000e-03
2.00000000e-03
2.00000000e-03
2.00000000e-03
2.00000000e-03
2.00000000e-03
2.00000000e-03
2.00000000e-03
2.00000000e-03
2.00000000e-03
2.00000000e-03
2.00000000e-03
2.00000000e-03
2.00000000e-03
2.00000000e-03
2.00000000e-03
2.00000000e-03
2.00000000e-03
2.00000000e-03
2.00000000e-03
2.00000000e-03
2.00000000e-03
2.00000000e-03
2.00000000e-03
2.00000000e-03
2.00000000e-03
2.00000000e-03
2.00000000e-03
2.00000000e-03
2.00000000e-03
2.00000000e-03
2.00000000e-03
2.00000000e-03
2.00000000e-03
2.00000000e-03
2.00000000e-03
2.00000000e-03
2.00000000e-03
2.00000000e-03
2.00000000e-03
2.00000000e-03
2.00000000e-03
2.00000000e-03
2.00000000e-03
2.00000000e-03
2.00000000e-03
2.00000000e-03
2.00000000e-03
2.00000000e-03
2.00000000e-03
2.00000000e-03
2.00000000e-03
2.00000000e-03
2.00000000e-03
2.00000000e-03
2.00000000e-03
2.00000000e-03
2.00000000e-03
2.00000000e-03
2.00000000e-03
2.00000000e-03
2.00000000e-03
2.00000000e-03
2.00000000e-03
2.00000000e-03
2.00000000e-03
2.00000000e-03
2.00000000e-03
2.00000000e-03
2.00000000e-03
2.00000000e-03
2.00000000e-03
2.00000000e-03
2.00000000e-03
2.00000000e-03
2.00000000e-03
2.00000000e-03
2.00000000e-03
2.00000000e-03
2.00000000e-03
2.00000000e-03
2.00000000e-03
2.00000000e-03
2.00000000e-03
2.00000000e-03
2.00000000e-03
