# vtk DataFile Version 2.0
Particle data
ASCII
DATASET POLYDATA
POINTS 469 double
1.86509000e-02	1.17378000e-02	8.15496000e-03
2.59496000e-02	1.21552000e-02	1.46109000e-02
2.88061000e-02	3.27053000e-03	6.12440000e-03
1.66576000e-02	-2.95166000e-02	1.04612000e-02
2.03559000e-02	-3.36968000e-03	2.05060000e-03
1.75662000e-02	1.44663000e-02	3.04227000e-03
2.01838000e-02	1.19410000e-02	1.28858000e-02
1.85774000e-02	-2.38319000e-02	1.81000000e-02
3.57309000e-02	8.23146000e-03	1.81000000e-02
2.79377000e-02	-2.59056000e-02	1.81008000e-02
1.87052000e-03	-2.22889000e-02	4.21951000e-03
2.40732000e-02	1.27083000e-02	1.81000000e-02
3.99072000e-02	-1.79633000e-03	1.22889000e-02
2.53384000e-02	2.31103000e-03	3.60504000e-03
1.01400000e-02	-1.30223000e-02	1.35424000e-02
2.48546000e-02	-3.12808000e-02	1.01631000e-02
1.94925000e-02	-1.93251000e-02	5.89868000e-03
3.26896000e-02	1.38894000e-02	1.99967000e-03
1.82003000e-02	-2.23260000e-02	1.36921000e-02
-3.36314000e-03	-2.74640000e-02	8.46709000e-03
-3.27951000e-03	-2.94599000e-02	1.99995000e-03
3.62218000e-02	4.24244000e-03	1.77624000e-02
1.74281000e-02	-3.59880000e-02	2.01820000e-03
2.04595000e-02	-7.37505000e-03	2.00417000e-03
2.44540000e-02	-1.42020000e-03	2.04867000e-03
2.84440000e-02	-2.20795000e-02	8.57319000e-03
-3.01855000e-03	-3.98677000e-02	1.53638000e-02
3.47944000e-02	9.93507000e-03	1.28095000e-02
1.05782000e-02	-3.50368000e-02	1.11685000e-02
2.00145000e-02	-1.91782000e-02	1.54323000e-02
3.13335000e-02	8.74592000e-03	1.02540000e-02
3.47400000e-02	1.78201000e-02	1.99990000e-03
3.02839000e-02	1.46905000e-02	5.19585000e-03
2.89407000e-02	-2.84320000e-03	1.81007000e-02
3.58000000e-02	-1.76765000e-02	1.08890000e-02
3.23969000e-02	5.01523000e-03	1.12276000e-02
1.57590000e-02	1.13970000e-02	5.15061000e-03
4.97551000e-03	-3.95777000e-02	9.56009000e-03
2.40549000e-02	1.08165000e-02	1.09775000e-02
1.68256000e-02	-5.73992000e-03	2.39775000e-03
6.75282000e-03	-3.62484000e-02	1.08825000e-02
3.50037000e-02	1.76862000e-02	1.43806000e-02
3.56337000e-02	-1.81256000e-02	2.48295000e-03
9.91211000e-03	-1.78732000e-02	1.79984000e-02
2.60918000e-02	-1.33740000e-02	1.63481000e-02
-3.75296000e-03	-3.11502000e-02	9.97154000e-03
1.45420000e-02	-1.79401000e-02	1.11199000e-02
-1.02487000e-03	-3.66333000e-02	1.41160000e-02
1.31187000e-02	-2.51289000e-02	1.08834000e-02
-3.56096000e-03	-2.68047000e-02	1.76605000e-02
1.92830000e-02	-2.19895000e-02	2.81142000e-03
1.35912000e-02	-2.14359000e-02	9.42431000e-03
9.40937000e-04	-3.99144000e-02	1.13264000e-02
1.74876000e-02	-1.85085000e-02	2.00025000e-03
2.48442000e-02	-2.68511000e-02	1.14816000e-02
1.45124000e-02	-3.15400000e-02	1.52602000e-02
2.77494000e-02	-2.87341000e-02	9.09831000e-03
-1.25284000e-03	-2.97798000e-02	1.62427000e-02
3.39210000e-02	-1.27274000e-02	1.44440000e-02
2.83261000e-02	-1.63229000e-02	1.48287000e-02
3.49619000e-02	-1.05449000e-02	1.80425000e-02
2.89506000e-02	-6.72221000e-03	1.05640000e-02
1.46933000e-02	-1.68492000e-02	1.80322000e-02
1.72841000e-02	-3.31843000e-02	8.99079000e-03
3.30888000e-02	2.95579000e-03	4.69526000e-03
1.08874000e-03	-2.66641000e-02	9.27696000e-03
3.35278000e-02	-2.18043000e-02	3.24355000e-03
2.78690000e-02	1.14066000e-02	1.81000000e-02
3.11500000e-02	-2.04032000e-02	6.14098000e-03
3.96506000e-02	-5.02571000e-03	9.94362000e-03
7.48688000e-03	-3.25729000e-02	6.44117000e-03
3.71944000e-02	5.14502000e-03	1.99970000e-03
-5.78218000e-03	-2.01355000e-02	1.59865000e-02
-1.57285000e-02	-3.66982000e-02	1.18059000e-02
3.05887000e-02	1.90150000e-02	5.80646000e-03
5.88538000e-03	-3.40088000e-02	1.81001000e-02
1.70837000e-02	-2.22596000e-02	7.15535000e-03
1.68915000e-02	8.78635000e-03	1.22070000e-02
3.94272000e-02	-6.64551000e-03	1.81005000e-02
2.36463000e-02	-3.22516000e-02	1.81010000e-02
5.69973000e-04	-3.04086000e-02	1.05873000e-02
2.99485000e-02	-3.77607000e-03	7.19590000e-03
2.89907000e-02	-7.30838000e-03	2.00193000e-03
2.73293000e-02	-9.17006000e-03	1.81011000e-02
3.21540000e-02	-9.99353000e-03	2.32074000e-03
-1.27931000e-02	-3.40880000e-02	2.36752000e-03
2.96948000e-02	1.68701000e-02	1.44219000e-02
2.06693000e-02	-3.42107000e-02	1.09951000e-02
3.60745000e-02	-5.68779000e-03	6.54465000e-03
2.74054000e-02	-1.94872000e-02	4.24057000e-03
-6.98701000e-03	-3.93522000e-02	1.05063000e-02
1.31894000e-02	-3.14166000e-03	5.99067000e-03
3.65399000e-02	5.76644000e-03	6.18408000e-03
-3.93190000e-03	-3.97896000e-02	2.30411000e-03
2.72476000e-02	6.75386000e-03	7.32560000e-03
3.89049000e-02	8.75659000e-03	8.02423000e-03
1.81533000e-02	-3.56144000e-02	5.93527000e-03
2.95997000e-02	-2.12628000e-02	1.23159000e-02
2.51481000e-02	-1.38294000e-03	1.80999000e-02
2.44546000e-02	2.85238000e-03	8.37546000e-03
2.49584000e-02	-2.00606000e-02	7.35202000e-03
2.65748000e-02	-1.90746000e-02	1.08807000e-02
8.46503000e-03	-3.59756000e-02	1.57601000e-02
3.98968000e-02	-2.68937000e-03	1.77439000e-02
2.82308000e-02	-1.73744000e-02	7.53449000e-03
-1.19022000e-02	-3.81592000e-02	8.67994000e-03
2.14990000e-02	-1.43436000e-02	6.58018000e-03
2.29702000e-02	-1.76429000e-02	4.86382000e-03
2.97192000e-02	-2.18802000e-02	2.02401000e-03
1.96820000e-02	-3.05428000e-03	6.56019000e-03
2.48829000e-02	-2.78932000e-02	2.00001000e-03
-5.30242000e-03	-3.36853000e-02	1.81001000e-02
3.01279000e-03	-3.13661000e-02	1.70727000e-02
1.84228000e-02	-2.82390000e-02	1.99821000e-03
3.22924000e-02	-5.67403000e-03	1.41903000e-02
2.95074000e-02	-1.50283000e-02	1.99920000e-03
-8.25937000e-03	-3.91301000e-02	1.56704000e-02
2.71676000e-02	-2.92531000e-02	4.99059000e-03
2.57332000e-02	6.68257000e-03	1.10996000e-02
3.37622000e-02	1.82882000e-02	8.26861000e-03
5.01396000e-03	-2.02851000e-02	1.99726000e-03
2.18146000e-02	-1.39531000e-02	1.33272000e-02
-1.55422000e-02	-3.26453000e-02	1.01588000e-02
3.86136000e-02	-1.03050000e-02	5.73156000e-03
3.98943000e-02	2.69449000e-03	1.81008000e-02
-1.17865000e-02	-3.57741000e-02	1.20458000e-02
2.69282000e-02	2.19372000e-02	6.67679000e-03
2.37803000e-02	1.45946000e-02	9.59752000e-03
1.39951000e-02	-3.28112000e-02	1.12359000e-02
4.87496000e-03	-3.16759000e-02	2.11190000e-03
1.44525000e-02	-2.88318000e-02	1.99938000e-03
3.97970000e-02	3.74815000e-03	4.69637000e-03
3.91994000e-03	-2.33548000e-02	1.81000000e-02
3.27186000e-02	1.48069000e-02	1.28034000e-02
1.52908000e-02	-1.55565000e-02	4.57056000e-03
3.78902000e-02	-1.25024000e-02	1.28977000e-02
2.99582000e-02	8.00492000e-03	4.62583000e-03
1.66825000e-02	8.75887000e-03	2.13822000e-03
2.07858000e-02	-1.68284000e-02	1.07410000e-02
1.55390000e-02	-2.49671000e-02	1.57593000e-02
3.18794000e-02	-9.44320000e-03	1.54604000e-02
-1.12263000e-02	-3.03183000e-02	5.29915000e-03
8.53089000e-03	-2.34320000e-02	1.29223000e-02
6.76173000e-04	-3.99528000e-02	2.44346000e-03
1.62541000e-02	4.40483000e-03	7.55081000e-03
-3.69738000e-03	-2.63911000e-02	4.53130000e-03
2.09380000e-02	-3.40697000e-02	2.00667000e-03
1.78548000e-02	4.81057000e-03	2.00240000e-03
2.17867000e-02	-8.77676000e-03	9.31805000e-03
2.62321000e-02	-2.04166000e-02	1.47773000e-02
1.21453000e-02	-1.73646000e-02	1.47201000e-02
2.56001000e-02	-1.24393000e-02	8.66435000e-03
2.63436000e-02	2.32853000e-02	1.16511000e-02
-3.53572000e-03	-3.37138000e-02	1.30342000e-02
1.66708000e-02	-2.59193000e-02	8.71388000e-03
1.96138000e-02	-2.92285000e-02	1.42002000e-02
2.74839000e-02	2.00080000e-02	3.21154000e-03
2.10566000e-02	-6.78143000e-03	5.92914000e-03
3.96121000e-02	-5.19373000e-03	1.43785000e-02
1.98618000e-02	5.99400000e-04	2.00028000e-03
3.48994000e-02	9.52328000e-03	7.15302000e-03
2.23427000e-02	1.90657000e-02	2.02631000e-03
3.67530000e-02	-9.07770000e-03	9.17026000e-03
1.14730000e-02	-3.47455000e-02	1.81005000e-02
2.48923000e-02	-5.39613000e-03	1.99981000e-03
2.18105000e-02	6.31183000e-03	1.33735000e-02
1.44419000e-02	-2.71981000e-02	5.64971000e-03
-2.03022000e-03	-2.29241000e-02	3.27968000e-03
1.63680000e-02	-3.36616000e-02	1.81001000e-02
2.15877000e-02	-3.35642000e-02	5.92188000e-03
2.21179000e-02	2.00149000e-02	1.10926000e-02
3.11268000e-02	-1.82720000e-02	1.01439000e-02
8.50177000e-04	-3.45696000e-02	1.81003000e-02
2.29795000e-02	1.48225000e-02	1.48770000e-02
3.36170000e-03	-1.78882000e-02	6.77076000e-03
2.58860000e-02	1.86726000e-02	1.21704000e-02
3.72509000e-02	1.44186000e-02	2.00000000e-03
3.61020000e-02	-5.57109000e-04	1.81002000e-02
2.99888000e-02	2.05452000e-02	1.80550000e-02
2.62091000e-02	-6.68984000e-03	7.60527000e-03
1.02059000e-02	-3.51787000e-02	5.08821000e-03
3.20642000e-02	-6.44287000e-03	5.09558000e-03
-3.42644000e-05	-2.13148000e-02	1.19855000e-02
1.08995000e-02	-3.84785000e-02	1.38081000e-02
2.95934000e-02	-1.28084000e-03	1.16591000e-02
2.96794000e-02	2.21594000e-02	9.75130000e-03
8.41853000e-03	-1.83709000e-02	2.82898000e-03
3.73913000e-02	1.38119000e-02	1.45596000e-02
9.91666000e-03	-1.38802000e-02	1.75229000e-02
3.16751000e-02	2.06534000e-02	2.05855000e-03
2.33356000e-02	-2.91001000e-02	1.56587000e-02
2.81476000e-02	-5.66966000e-03	1.43661000e-02
1.75381000e-02	-3.59121000e-02	1.50075000e-02
9.47621000e-04	-3.99581000e-02	1.79349000e-02
2.41510000e-02	-4.91027000e-04	6.20029000e-03
1.41609000e-02	-2.79662000e-02	1.35017000e-02
3.35104000e-02	-8.57248000e-04	1.07673000e-02
2.16449000e-02	-2.12367000e-02	9.28982000e-03
1.09958000e-02	-2.56406000e-02	6.95226000e-03
2.85239000e-02	-2.19501000e-02	1.80968000e-02
-5.23532000e-03	-3.65391000e-02	1.52985000e-02
4.30880000e-04	-3.29213000e-02	1.44279000e-02
2.03023000e-02	-3.44537000e-02	1.80981000e-02
3.98413000e-02	2.10972000e-03	1.14333000e-02
2.78356000e-02	-2.40736000e-02	1.45476000e-02
3.13527000e-03	-3.23388000e-02	8.19409000e-03
7.69018000e-03	-3.30711000e-02	1.31226000e-02
6.11701000e-03	-3.62934000e-02	5.91333000e-03
3.16283000e-02	7.41539000e-03	1.43335000e-02
1.04161000e-02	-3.08089000e-02	1.12666000e-02
3.66203000e-02	-1.59364000e-02	1.45080000e-02
2.56071000e-02	-1.66991000e-02	2.00559000e-03
3.28902000e-02	-1.70285000e-02	1.35550000e-02
2.99855000e-02	-1.28494000e-02	1.37460000e-02
3.12851000e-02	1.14004000e-02	1.43329000e-02
2.89929000e-02	1.97031000e-03	2.01488000e-03
[...]
POINT_DATA 469
SCALARS Radius double 1
LOOKUP_TABLE default
2.00000000e-03
2.00000000e-03
2.00000000e-03
2.00000000e-03
2.00000000e-03
2.00000000e-03
2.00000000e-03
2.00000000e-03
2.00000000e-03
2.00000000e-03
2.00000000e-03
2.00000000e-03
2.00000000e-03
2.00000000e-03
2.00000000e-03
2.00000000e-03
2.00000000e-03
2.00000000e-03
2.00000000e-03
2.00000000e-03
2.00000000e-03
2.00000000e-03
2.00000000e-03
2.00000000e-03
2.00000000e-03
2.00000000e-03
2.00000000e-03
2.00000000e-03
2.00000000e-03
2.00000000e-03
2.00000000e-03
2.00000000e-03
2.00000000e-03
2.00000000e-03
2.00000000e-03
2.00000000e-03
2.00000000e-03
2.00000000e-03
2.00000000e-03
2.00000000e-03
2.00000000e-03
2.00000000e-03
2.00000000e-03
2.00000000e-03
2.00000000e-03
2.00000000e-03
2.00000000e-03
2.00000000e-03
2.00000000e-03
2.00000000e-03
2.00000000e-03
2.00000000e-03
2.00000000e-03
2.00000000e-03
2.00000000e-03
2.00000000e-03
2.00000000e-03
2.00000000e-03
2.00000000e-03
2.00000000e-03
2.00000000e-03
2.00000000e-03
2.00000000e-03
2.00000000e-03
2.00000000e-03
2.00000000e-03
2.00000000e-03
2.00000000e-03
2.00000000e-03
2.00000000e-03
2.00000000e-03
2.00000000e-03
2.00000000e-03
2.00000000e-03
2.00000000e-03
2.00000000e-03
2.00000000e-03
2.00000000e-03
2.00000000e-03
2.00000000e-03
2.00000000e-03
2.00000000e-03
2.00000000e-03
2.00000000e-03
2.00000000e-03
2.00000000e-03
2.00000000e-03
2.00000000e-03
2.00000000e-03
2.00000000e-03
2.00000000e-03
2.00000000e-03
2.00000000e-03
2.00000000e-03
2.00000000e-03
2.00000000e-03
2.00000000e-03
2.00000000e-03
2.00000000e-03
2.00000000e-03
2.00000000e-03
2.00000000e-03
2.00000000e-03
2.00000000e-03
2.00000000e-03
2.00000000e-03
2.00000000e-03
2.00000000e-03
2.00000000e-03
2.00000000e-03
2.00000000e-03
2.00000000e-03
2.00000000e-03
2.00000000e-03
2.00000000e-03
2.00000000e-03
2.00000000e-03
2.00000000e-03
2.00000000e-03
2.00000000e-03
2.00000000e-03
2.00000000e-03
2.00000000e-03
2.00000000e-03
2.00000000e-03
2.00000000e-03
2.00000000e-03
2.00000000e-03
2.00000000e-03
2.00000000e-03
2.00000000e-03
2.00000000e-03
2.00000000e-03
2.00000000e-03
2.00000000e-03
2.00000000e-03
2.00000000e-03
2.00000000e-03
2.00000000e-03
2.00000000e-03
2.00000000e-03
2.00000000e-03
2.00000000e-03
2.00000000e-03
2.00000000e-03
2.00000000e-03
2.00000000e-03
2.00000000e-03
2.00000000e-03
2.00000000e-03
2.00000000e-03
2.00000000e-03
2.00000000e-03
2.00000000e-03
2.00000000e-03
2.00000000e-03
2.00000000e-03
2.00000000e-03
2.00000000e-03
2.00000000e-03
2.00000000e-03
2.00000000e-03
2.00000000e-03
2.00000000e-03
2.00000000e-03
2.00000000e-03
2.00000000e-03
2.00000000e-03
2.00000000e-03
2.00000000e-03
2.00000000e-03
2.00000000e-03
2.00000000e-03
2.00000000e-03
2.00000000e-03
2.00000000e-03
2.00000000e-03
2.00000000e-03
2.00000000e-03
2.00000000e-03
2.00000000e-03
2.00000000e-03
2.00000000e-03
2.00000000e-03
2.00000000e-03
2.00000000e-03
2.00000000e-03
2.00000000e-03
2.00000000e-03
2.00000000e-03
2.00000000e-03
2.00000000e-03
2.00000000e-03
2.00000000e-03
2.00000000e-03
2.00000000e-03
2.00000000e-03
2.00000000e-03
2.00000000e-03
2.00000000e-03
2.00000000e-03
2.00000000e-03
2.00000000e-03
2.00000000e-03
2.00000000e-03
2.00000000e-03
2.00000000e-03
2.00000000e-03
2.00000000e-03
2.00000000e-03
2.00000000e-03
2.00000000e-03
2.00000000e-03
2.00000000e-03
2.00000000e-03
2.00000000e-03
2.00000000e-03
2.00000000e-03
2.00000000e-03
2.00000000e-03
2.00000000e-03
2.00000000e-03
2.00000000e-03
2.00000000e-03
2.00000000e-03
2.00000000e-03
2.00000000e-03
2.00000000e-03
2.00000000e-03
2.00000000e-03
2.00000000e-03
2.00000000e-03
2.00000000e-03
2.00000000e-03
2.00000000e-03
2.00000000e-03
2.00000000e-03
2.00000000e-03
2.00000000e-03
2.00000000e-03
2.00000000e-03
2.00000000e-03
2.00000000e-03
2.00000000e-03
2.00000000e-03
2.00000000e-03
2.00000000e-03
2.00000000e-03
2.00000000e-03
2.00000000e-03
2.00000000e-03
2.00000000e-03
2.00000000e-03
2.00000000e-03
2.00000000e-03
2.00000000e-03
2.00000000e-03
2.00000000e-03
2.00000000e-03
2.00000000e-03
2.00000000e-03
2.00000000e-03
2.00000000e-03
2.00000000e-03
2.00000000e-03
2.00000000e-03
2.00000000e-03
2.00000000e-03
2.00000000e-03
2.00000000e-03
2.00000000e-03
2.00000000e-03
2.00000000e-03
2.00000000e-03
2.00000000e-03
2.00000000e-03
2.00000000e-03
2.00000000e-03
2.00000000e-03
2.00000000e-03
2.00000000e-03
2.00000000e-03
2.00000000e-03
2.00000000e-03
2.00000000e-03
2.00000000e-03
2.00000000e-03
2.00000000e-03
2.00000000e-03
2.00000000e-03
2.00000000e-03
2.00000000e-03
2.00000000e-03
2.00000000e-03
2.00000000e-03
2.00000000e-03
2.00000000e-03
2.00000000e-03
2.00000000e-03
2.00000000e-03
2.00000000e-03
2.00000000e-03
2.00000000e-03
2.00000000e-03
2.00000000e-03
2.00000000e-03
2.00000000e-03
2.00000000e-03
2.00000000e-03
2.00000000e-03
2.00000000e-03
2.00000000e-03
2.00000000e-03
2.00000000e-03
2.00000000e-03
2.00000000e-03
2.00000000e-03
2.00000000e-03
2.00000000e-03
2.00000000e-03
2.00000000e-03
2.00000000e-03
2.00000000e-03
2.00000000e-03
2.00000000e-03
2.00000000e-03
2.00000000e-03
2.00000000e-03
2.00000000e-03
2.00000000e-03
2.00000000e-03
2.00000000e-03
2.00000000e-03
2.00000000e-03
2.00000000e-03
2.00000000e-03
2.00000000e-03
2.00000000e-03
2.00000000e-03
2.00000000e-03
2.00000000e-03
2.00000000e-03
2.00000000e-03
2.00000000e-03
2.00000000e-03
2.00000000e-03
2.00000000e-03
2.00000000e-03
2.00000000e-03
2.00000000e-03
2.00000000e-03
2.00000000e-03
2.00000000e-03
2.00000000e-03
2.00000000e-03
2.00000000e-03
2.00000000e-03
2.00000000e-03
2.00000000e-03
2.00000000e-03
2.00000000e-03
2.00000000e-03
2.00000000e-03
2.00000000e-03
2.00000000e-03
2.00000000e-03
2.00000000e-03
2.00000000e-03
2.00000000e-03
2.00000000e-03
2.00000000e-03
2.00000000e-03
2.00000000e-03
2.00000000e-03
2.00000000e-03
2.00000000e-03
2.00000000e-03
2.00000000e-03
2.00000000e-03
2.00000000e-03
2.00000000e-03
2.00000000e-03
2.00000000e-03
2.00000000e-03
2.00000000e-03
2.00000000e-03
2.00000000e-03
2.00000000e-03
2.00000000e-03
2.00000000e-03
2.00000000e-03
2.00000000e-03
2.00000000e-03
2.00000000e-03
2.00000000e-03
2.00000000e-03
2.00000000e-03
2.00000000e-03
2.00000000e-03
2.00000000e-03
2.00000000e-03
2.00000000e-03
2.00000000e-03
2.00000000e-03
2.00000000e-03
2.00000000e-03
2.00000000e-03
2.00000000e-03
2.00000000e-03
2.00000000e-03
2.00000000e-03
2.00000000e-03
2.00000000e-03
2.00000000e-03
2.00000000e-03
2.00000000e-03
2.00000000e-03
2.00000000e-03
2.00000000e-03
2.00000000e-03
2.00000000e-03
2.00000000e-03
2.00000000e-03
2.00000000e-03
2.00000000e-03
2.00000000e-03
2.00000000e-03
2.00000000e-03
2.00000000e-03
2.00000000e-03
2.00000000e-03
2.00000000e-03
2.00000000e-03
2.00000000e-03
2.00000000e-03
2.00000000e-03
2.00000000e-03
2.00000000e-03
2.00000000e-03
2.00000000e-03
2.00000000e-03
2.00000000e-03
2.00000000e-03
2.00000000e-03
2.00000000e-03
2.00000000e-03
2.00000000e-03
2.00000000e-03
2.00000000e-03
2.00000000e-03
2.00000000e-03
2.00000000e-03
2.00000000e-03
2.00000000e-03
2.00000000e-03
2.00000000e-03
2.00000000e-03
2.00000000e-03
2.00000000e-03
2.00000000e-03
2.00000000e-03
2.00000000e-03
2.00000000e-03
2.00000000e-03
2.00000000e-03
2.00000000e-03
2.00000000e-03
2.00000000e-03
2.00000000e-03
