# vtk DataFile Version 2.0
Particle data
ASCII
DATASET POLYDATA
POINTS 469 double
2.36096000e-02	-2.72968000e-02	8.81487000e-03
1.27406000e-02	-3.03764000e-02	1.31167000e-02
4.58452000e-03	-2.56501000e-02	3.31176000e-03
3.79994000e-02	1.13963000e-02	1.80996000e-02
9.29252000e-03	-2.72133000e-02	2.53590000e-03
2.83836000e-02	-2.81524000e-02	2.49610000e-03
2.07153000e-02	-2.64620000e-02	1.14452000e-02
2.66913000e-02	-5.57352000e-03	1.73074000e-02
4.52648000e-03	-3.58343000e-02	1.81004000e-02
1.93973000e-02	8.24669000e-03	1.27695000e-02
3.23472000e-02	-2.35002000e-02	1.79473000e-02
1.50945000e-02	-2.79979000e-02	1.81021000e-02
-9.04840000e-03	-3.89014000e-02	1.17965000e-02
7.51078000e-03	-2.31881000e-02	2.12973000e-03
3.01147000e-02	-2.62157000e-02	1.44648000e-02
3.00992000e-02	8.95935000e-03	1.22502000e-02
3.59681000e-02	5.45325000e-03	1.42808000e-02
1.08231000e-02	-3.48153000e-02	1.99891000e-03
3.09528000e-02	-4.64583000e-03	1.36707000e-02
3.24754000e-02	-1.99120000e-02	1.10966000e-02
3.26962000e-02	-1.55321000e-02	1.99878000e-03
-1.11242000e-03	-3.70040000e-02	1.81010000e-02
3.27246000e-02	1.22851000e-02	1.17187000e-02
1.74968000e-02	-1.13024000e-02	1.99961000e-03
8.68390000e-03	-1.50533000e-02	2.53197000e-03
2.91564000e-02	1.37853000e-02	1.50370000e-02
3.88445000e-02	-9.27436000e-03	1.39687000e-02
6.28150000e-03	-3.60052000e-02	1.34593000e-02
3.97275000e-02	4.33725000e-03	1.58037000e-02
1.75292000e-02	-1.69224000e-02	1.42499000e-02
6.26608000e-03	-3.30945000e-02	1.07174000e-02
1.59524000e-02	-3.66620000e-02	2.03643000e-03
1.24153000e-02	-3.39669000e-02	5.56710000e-03
8.58013000e-03	-1.92841000e-02	1.79408000e-02
1.29011000e-02	-9.96318000e-03	8.82596000e-03
1.53189000e-03	-3.15805000e-02	1.24783000e-02
2.89153000e-02	-2.74910000e-02	6.47204000e-03
3.63427000e-02	-4.09402000e-03	9.55242000e-03
1.68575000e-02	-2.73716000e-02	1.09146000e-02
1.36066000e-02	-1.61681000e-02	2.72719000e-03
3.56177000e-02	-7.65578000e-03	7.72426000e-03
1.46170000e-02	-3.61048000e-02	1.52999000e-02
5.67204000e-04	-1.70477000e-02	2.27984000e-03
1.94298000e-02	-2.13988000e-02	1.41227000e-02
3.17447000e-02	1.07321000e-02	1.54420000e-02
3.33248000e-02	-1.46152000e-02	1.12066000e-02
2.61126000e-02	-1.65113000e-02	1.44495000e-02
2.37437000e-02	-1.61197000e-02	5.93773000e-03
2.19286000e-02	-9.00672000e-03	1.20161000e-02
1.95722000e-02	-2.17944000e-02	1.81005000e-02
1.76355000e-02	-1.67128000e-02	1.99971000e-03
1.80719000e-02	-1.40091000e-02	4.92210000e-03
3.51330000e-02	8.05088000e-03	1.72757000e-02
2.63138000e-02	-4.19435000e-03	7.53674000e-03
3.13419000e-02	1.79155000e-02	4.92920000e-03
3.96070000e-02	2.78018000e-04	1.41808000e-02
2.38983000e-02	8.59287000e-03	1.03377000e-02
2.97325000e-02	-1.50338000e-02	1.53169000e-02
2.44716000e-02	1.39701000e-02	1.39271000e-02
1.72252000e-02	6.60263000e-03	1.57359000e-02
4.11096000e-04	-1.62876000e-02	1.80751000e-02
1.79428000e-02	-9.25526000e-03	1.03118000e-02
1.79084000e-02	-1.81577000e-02	1.80370000e-02
3.62541000e-02	3.49300000e-03	1.08059000e-02
-1.71954000e-05	-3.30597000e-02	5.59414000e-03
3.56966000e-02	-1.79124000e-02	6.52146000e-03
4.19357000e-03	-1.13050000e-02	1.03249000e-02
1.17586000e-02	-3.02271000e-02	1.79250000e-02
2.81916000e-02	1.57587000e-02	1.16829000e-02
-5.39393000e-03	-3.04279000e-02	1.10634000e-02
3.94403000e-02	-6.35835000e-03	6.31404000e-03
-2.88555000e-04	-3.78940000e-02	2.00066000e-03
2.62402000e-02	-2.22634000e-02	1.80994000e-02
3.50628000e-02	-1.15373000e-02	8.50868000e-03
1.94345000e-02	-3.44199000e-02	5.81166000e-03
3.84987000e-02	-1.06588000e-02	1.81003000e-02
3.21629000e-02	-3.99229000e-03	6.32114000e-03
1.80865000e-02	-2.37875000e-02	9.63667000e-03
-1.10548000e-02	-3.57380000e-02	1.78518000e-02
2.27867000e-02	-3.31908000e-03	1.80849000e-02
2.98459000e-02	-1.35156000e-02	5.43047000e-03
1.21023000e-02	-1.58861000e-02	8.02061000e-03
1.40591000e-02	2.14253000e-03	2.02382000e-03
8.17398000e-03	-1.29654000e-02	1.80328000e-02
1.37625000e-02	-4.35969000e-03	2.65428000e-03
3.55169000e-02	-1.83669000e-02	1.99926000e-03
1.77571000e-02	-3.28396000e-02	1.48179000e-02
3.45097000e-02	8.99587000e-03	1.31308000e-02
5.76986000e-03	-1.40806000e-02	6.74746000e-03
2.84153000e-02	2.84581000e-03	6.88625000e-03
3.38460000e-02	-1.35102000e-02	5.25080000e-03
2.09769000e-02	-2.30441000e-02	1.99864000e-03
-3.28909000e-04	-3.70134000e-02	6.10680000e-03
3.90660000e-02	-8.30532000e-03	9.78787000e-03
3.72046000e-03	-2.88826000e-02	8.76678000e-03
3.65537000e-03	-3.98152000e-02	8.31888000e-03
3.53636000e-02	6.80520000e-03	8.74763000e-03
2.09366000e-02	7.19199000e-03	1.80487000e-02
1.33841000e-02	-1.36122000e-02	1.78986000e-02
1.04884000e-02	-2.10695000e-02	8.60723000e-03
2.53702000e-02	3.45999000e-03	2.81051000e-03
2.72500000e-02	1.41786000e-03	1.04386000e-02
3.46668000e-02	1.50473000e-03	1.41787000e-02
-8.89214000e-03	-3.89943000e-02	1.68483000e-02
2.83249000e-02	1.19044000e-02	1.02037000e-02
2.14152000e-02	-1.44504000e-02	2.00342000e-03
2.94601000e-02	8.59120000e-03	1.99972000e-03
2.00664000e-02	-8.44970000e-03	3.11986000e-03
8.23054000e-03	-1.43277000e-03	2.02596000e-03
1.23379000e-02	-2.61992000e-02	4.92229000e-03
3.01300000e-02	5.80117000e-03	4.78600000e-03
3.47094000e-02	-1.19964000e-02	1.81005000e-02
2.95391000e-02	-1.64691000e-02	1.14123000e-02
3.46077000e-02	6.84312000e-03	2.01834000e-03
6.64626000e-03	-1.60657000e-02	1.60231000e-02
2.40330000e-02	9.47943000e-03	2.00130000e-03
3.98886000e-02	-2.32807000e-03	1.01052000e-02
2.17991000e-02	1.96871000e-03	9.74736000e-03
7.99505000e-03	-2.94925000e-02	1.08851000e-02
1.60875000e-02	-3.65740000e-02	6.20190000e-03
2.53458000e-02	-2.05761000e-02	2.00003000e-03
1.35549000e-02	-1.75802000e-02	1.71842000e-02
3.45305000e-02	-2.01793000e-02	1.74973000e-02
-7.88230000e-03	-3.16257000e-02	8.09492000e-03
-5.14380000e-03	-3.96560000e-02	1.81002000e-02
3.21804000e-02	-1.86970000e-02	4.50671000e-03
2.61825000e-02	-3.01775000e-02	5.32167000e-03
1.53775000e-02	-2.80801000e-02	7.26884000e-03
3.63429000e-02	-1.20562000e-04	9.09280000e-03
3.23746000e-02	-3.23081000e-04	2.14839000e-03
3.60809000e-02	-4.32034000e-03	5.56762000e-03
-2.61420000e-03	-3.99065000e-02	4.55799000e-03
3.07212000e-02	-1.23366000e-02	1.81001000e-02
1.19021000e-02	-3.42563000e-02	1.26376000e-02
1.39834000e-02	-1.92859000e-02	9.66799000e-03
1.04126000e-02	-2.10543000e-03	6.91026000e-03
6.03102000e-03	-3.36422000e-02	4.01458000e-03
2.44436000e-02	-2.76230000e-02	2.05489000e-03
2.46616000e-02	6.09461000e-03	1.33767000e-02
3.61467000e-02	-4.48636000e-03	1.75620000e-02
7.32338000e-03	-8.08675000e-03	1.49564000e-02
2.91058000e-02	-1.92080000e-02	1.99941000e-03
3.05767000e-02	-1.88472000e-02	1.44552000e-02
3.98126000e-02	-2.38651000e-03	6.02627000e-03
2.43975000e-02	-2.34116000e-02	8.28956000e-03
3.33981000e-02	-2.19844000e-02	2.57139000e-03
3.55572000e-02	1.61818000e-02	1.03404000e-02
3.10455000e-02	-2.52072000e-02	2.00031000e-03
2.21277000e-02	-9.05913000e-03	6.49253000e-03
1.48122000e-02	-2.97679000e-03	1.80977000e-02
2.68665000e-02	-2.03250000e-02	1.09878000e-02
2.57082000e-02	7.68832000e-03	1.81002000e-02
2.41403000e-02	-3.18375000e-02	1.15136000e-02
3.76938000e-02	-1.29786000e-02	1.49440000e-02
2.06692000e-02	-1.66876000e-02	1.16643000e-02
2.51455000e-02	-1.17779000e-02	1.03664000e-02
2.29956000e-02	-3.26146000e-02	5.57431000e-03
8.92740000e-03	-2.40194000e-02	5.77663000e-03
-1.19639000e-02	-3.81275000e-02	1.44350000e-02
2.47803000e-02	-1.66170000e-02	2.01750000e-03
5.02439000e-03	-3.64225000e-02	6.70636000e-03
2.44873000e-02	-3.16206000e-02	1.99886000e-03
1.35473000e-02	6.46706000e-03	1.15362000e-02
3.44908000e-02	7.36056000e-04	1.81001000e-02
1.67512000e-02	-8.24114000e-04	2.00221000e-03
1.34342000e-02	-2.64537000e-02	1.27754000e-02
1.91226000e-02	-1.67963000e-02	7.59116000e-03
2.86763000e-02	-2.21280000e-02	4.69788000e-03
3.91006000e-02	7.55115000e-03	1.81002000e-02
2.93770000e-02	6.28795000e-03	8.70994000e-03
2.68755000e-02	-2.95699000e-02	9.21391000e-03
2.41652000e-02	1.12061000e-02	6.56806000e-03
2.44640000e-02	-1.56831000e-02	1.08981000e-02
1.63324000e-02	-2.91204000e-02	1.44709000e-02
1.99102000e-02	-2.27873000e-02	5.84422000e-03
1.99851000e-02	-3.02269000e-02	1.25816000e-02
9.97003000e-03	-3.87213000e-02	2.01340000e-03
-6.35986000e-03	-3.59254000e-02	1.73237000e-02
2.11372000e-02	-3.39317000e-02	1.81000000e-02
2.39797000e-02	-3.67891000e-03	4.12299000e-03
3.85209000e-02	9.30587000e-03	1.45529000e-02
1.10126000e-02	-1.26283000e-02	5.97222000e-03
1.50911000e-02	-2.39983000e-02	1.80798000e-02
3.68459000e-02	1.28693000e-02	7.55128000e-03
1.05054000e-02	-1.92922000e-02	1.43419000e-02
2.14736000e-02	-3.36839000e-02	9.17310000e-03
2.92177000e-02	-2.24622000e-02	1.34172000e-02
1.16803000e-02	-3.82104000e-02	1.31869000e-02
2.42763000e-02	-1.49192000e-02	1.78157000e-02
2.06578000e-02	-3.42386000e-02	2.00005000e-03
3.22178000e-02	1.36847000e-02	1.80997000e-02
1.95324000e-02	4.30670000e-03	1.20841000e-02
3.23172000e-02	1.57829000e-02	1.36161000e-02
3.95702000e-02	4.80853000e-03	7.84950000e-03
1.59911000e-02	-1.07520000e-02	5.95961000e-03
2.90394000e-02	-2.42505000e-03	1.80969000e-02
1.84860000e-02	2.14328000e-04	1.11686000e-02
2.12271000e-02	-1.27942000e-02	1.09385000e-02
1.95377000e-02	-2.00681000e-02	9.85305000e-03
2.73455000e-02	1.91615000e-02	1.80981000e-02
3.80805000e-02	-1.19533000e-02	1.10986000e-02
3.21709000e-02	-1.61797000e-02	7.71172000e-03
3.26000000e-02	1.90130000e-03	1.03738000e-02
-4.75500000e-03	-3.96916000e-02	1.17703000e-02
3.64923000e-02	1.48564000e-02	1.48404000e-02
2.76873000e-02	-1.57647000e-02	7.93787000e-03
2.62156000e-02	-1.25132000e-02	1.44150000e-02
3.93928000e-02	-6.82134000e-03	1.74170000e-02
4.03925000e-03	-3.31642000e-02	1.51624000e-02
3.25704000e-02	-8.20466000e-03	1.45174000e-02
3.46102000e-03	-1.20892000e-02	1.65442000e-02
2.96857000e-02	1.25844000e-02	2.01619000e-03
2.03038000e-02	7.70069000e-03	8.68243000e-03
2.69090000e-02	2.88781000e-03	1.42260000e-02
9.24315000e-03	-3.26535000e-02	1.51579000e-02
1.61529000e-03	-2.64812000e-02	6.02794000e-03
[...]
POINT_DATA 469
SCALARS Radius double 1
LOOKUP_TABLE default
2.00000000e-03
2.00000000e-03
2.00000000e-03
2.00000000e-03
2.00000000e-03
2.00000000e-03
2.00000000e-03
2.00000000e-03
2.00000000e-03
2.00000000e-03
2.00000000e-03
2.00000000e-03
2.00000000e-03
2.00000000e-03
2.00000000e-03
2.00000000e-03
2.00000000e-03
2.00000000e-03
2.00000000e-03
2.00000000e-03
2.00000000e-03
2.00000000e-03
2.00000000e-03
2.00000000e-03
2.00000000e-03
2.00000000e-03
2.00000000e-03
2.00000000e-03
2.00000000e-03
2.00000000e-03
2.00000000e-03
2.00000000e-03
2.00000000e-03
2.00000000e-03
2.00000000e-03
2.00000000e-03
2.00000000e-03
2.00000000e-03
2.00000000e-03
2.00000000e-03
2.00000000e-03
2.00000000e-03
2.00000000e-03
2.00000000e-03
2.00000000e-03
2.00000000e-03
2.00000000e-03
2.00000000e-03
2.00000000e-03
2.00000000e-03
2.00000000e-03
2.00000000e-03
2.00000000e-03
2.00000000e-03
2.00000000e-03
2.00000000e-03
2.00000000e-03
2.00000000e-03
2.00000000e-03
2.00000000e-03
2.00000000e-03
2.00000000e-03
2.00000000e-03
2.00000000e-03
2.00000000e-03
2.00000000e-03
2.00000000e-03
2.00000000e-03
2.00000000e-03
2.00000000e-03
2.00000000e-03
2.00000000e-03
2.00000000e-03
2.00000000e-03
2.00000000e-03
2.00000000e-03
2.00000000e-03
2.00000000e-03
2.00000000e-03
2.00000000e-03
2.00000000e-03
2.00000000e-03
2.00000000e-03
2.00000000e-03
2.00000000e-03
2.00000000e-03
2.00000000e-03
2.00000000e-03
2.00000000e-03
2.00000000e-03
2.00000000e-03
2.00000000e-03
2.00000000e-03
2.00000000e-03
2.00000000e-03
2.00000000e-03
2.00000000e-03
2.00000000e-03
2.00000000e-03
2.00000000e-03
2.00000000e-03
2.00000000e-03
2.00000000e-03
2.00000000e-03
2.00000000e-03
2.00000000e-03
2.00000000e-03
2.00000000e-03
2.00000000e-03
2.00000000e-03
2.00000000e-03
2.00000000e-03
2.00000000e-03
2.00000000e-03
2.00000000e-03
2.00000000e-03
2.00000000e-03
2.00000000e-03
2.00000000e-03
2.00000000e-03
2.00000000e-03
2.00000000e-03
2.00000000e-03
2.00000000e-03
2.00000000e-03
2.00000000e-03
2.00000000e-03
2.00000000e-03
2.00000000e-03
2.00000000e-03
2.00000000e-03
2.00000000e-03
2.00000000e-03
2.00000000e-03
2.00000000e-03
2.00000000e-03
2.00000000e-03
2.00000000e-03
2.00000000e-03
2.00000000e-03
2.00000000e-03
2.00000000e-03
2.00000000e-03
2.00000000e-03
2.00000000e-03
2.00000000e-03
2.00000000e-03
2.00000000e-03
2.00000000e-03
2.00000000e-03
2.00000000e-03
2.00000000e-03
2.00000000e-03
2.00000000e-03
2.00000000e-03
2.00000000e-03
2.00000000e-03
2.00000000e-03
2.00000000e-03
2.00000000e-03
2.00000000e-03
2.00000000e-03
2.00000000e-03
2.00000000e-03
2.00000000e-03
2.00000000e-03
2.00000000e-03
2.00000000e-03
2.00000000e-03
2.00000000e-03
2.00000000e-03
2.00000000e-03
2.00000000e-03
2.00000000e-03
2.00000000e-03
2.00000000e-03
2.00000000e-03
2.00000000e-03
2.00000000e-03
2.00000000e-03
2.00000000e-03
2.00000000e-03
2.00000000e-03
2.00000000e-03
2.00000000e-03
2.00000000e-03
2.00000000e-03
2.00000000e-03
2.00000000e-03
2.00000000e-03
2.00000000e-03
2.00000000e-03
2.00000000e-03
2.00000000e-03
2.00000000e-03
2.00000000e-03
2.00000000e-03
2.00000000e-03
2.00000000e-03
2.00000000e-03
2.00000000e-03
2.00000000e-03
2.00000000e-03
2.00000000e-03
2.00000000e-03
2.00000000e-03
2.00000000e-03
2.00000000e-03
2.00000000e-03
2.00000000e-03
2.00000000e-03
2.00000000e-03
2.00000000e-03
2.00000000e-03
2.00000000e-03
2.00000000e-03
2.00000000e-03
2.00000000e-03
2.00000000e-03
2.00000000e-03
2.00000000e-03
2.00000000e-03
2.00000000e-03
2.00000000e-03
2.00000000e-03
2.00000000e-03
2.00000000e-03
2.00000000e-03
2.00000000e-03
2.00000000e-03
2.00000000e-03
2.00000000e-03
2.00000000e-03
2.00000000e-03
2.00000000e-03
2.00000000e-03
2.00000000e-03
2.00000000e-03
2.00000000e-03
2.00000000e-03
2.00000000e-03
2.00000000e-03
2.00000000e-03
2.00000000e-03
2.00000000e-03
2.00000000e-03
2.00000000e-03
2.00000000e-03
2.00000000e-03
2.00000000e-03
2.00000000e-03
2.00000000e-03
2.00000000e-03
2.00000000e-03
2.00000000e-03
2.00000000e-03
2.00000000e-03
2.00000000e-03
2.00000000e-03
2.00000000e-03
2.00000000e-03
2.00000000e-03
2.00000000e-03
2.00000000e-03
2.00000000e-03
2.00000000e-03
2.00000000e-03
2.00000000e-03
2.00000000e-03
2.00000000e-03
2.00000000e-03
2.00000000e-03
2.00000000e-03
2.00000000e-03
2.00000000e-03
2.00000000e-03
2.00000000e-03
2.00000000e-03
2.00000000e-03
2.00000000e-03
2.00000000e-03
2.00000000e-03
2.00000000e-03
2.00000000e-03
2.00000000e-03
2.00000000e-03
2.00000000e-03
2.00000000e-03
2.00000000e-03
2.00000000e-03
2.00000000e-03
2.00000000e-03
2.00000000e-03
2.00000000e-03
2.00000000e-03
2.00000000e-03
2.00000000e-03
2.00000000e-03
2.00000000e-03
2.00000000e-03
2.00000000e-03
2.00000000e-03
2.00000000e-03
2.00000000e-03
2.00000000e-03
2.00000000e-03
2.00000000e-03
2.00000000e-03
2.00000000e-03
2.00000000e-03
2.00000000e-03
2.00000000e-03
2.00000000e-03
2.00000000e-03
2.00000000e-03
2.00000000e-03
2.00000000e-03
2.00000000e-03
2.00000000e-03
2.00000000e-03
2.00000000e-03
2.00000000e-03
2.00000000e-03
2.00000000e-03
2.00000000e-03
2.00000000e-03
2.00000000e-03
2.00000000e-03
2.00000000e-03
2.00000000e-03
2.00000000e-03
2.00000000e-03
2.00000000e-03
2.00000000e-03
2.00000000e-03
2.00000000e-03
2.00000000e-03
2.00000000e-03
2.00000000e-03
2.00000000e-03
2.00000000e-03
2.00000000e-03
2.00000000e-03
2.00000000e-03
2.00000000e-03
2.00000000e-03
2.00000000e-03
2.00000000e-03
2.00000000e-03
2.00000000e-03
2.00000000e-03
2.00000000e-03
2.00000000e-03
2.00000000e-03
2.00000000e-03
2.00000000e-03
2.00000000e-03
2.00000000e-03
2.00000000e-03
2.00000000e-03
2.00000000e-03
2.00000000e-03
2.00000000e-03
2.00000000e-03
2.00000000e-03
2.00000000e-03
2.00000000e-03
2.00000000e-03
2.00000000e-03
2.00000000e-03
2.00000000e-03
2.00000000e-03
2.00000000e-03
2.00000000e-03
2.00000000e-03
2.00000000e-03
2.00000000e-03
2.00000000e-03
2.00000000e-03
2.00000000e-03
2.00000000e-03
2.00000000e-03
2.00000000e-03
2.00000000e-03
2.00000000e-03
2.00000000e-03
2.00000000e-03
2.00000000e-03
2.00000000e-03
2.00000000e-03
2.00000000e-03
2.00000000e-03
2.00000000e-03
2.00000000e-03
2.00000000e-03
2.00000000e-03
2.00000000e-03
2.00000000e-03
2.00000000e-03
2.00000000e-03
2.00000000e-03
2.00000000e-03
2.00000000e-03
2.00000000e-03
2.00000000e-03
2.00000000e-03
2.00000000e-03
2.00000000e-03
2.00000000e-03
2.00000000e-03
2.00000000e-03
2.00000000e-03
2.00000000e-03
2.00000000e-03
2.00000000e-03
2.00000000e-03
2.00000000e-03
2.00000000e-03
2.00000000e-03
2.00000000e-03
2.00000000e-03
2.00000000e-03
2.00000000e-03
2.00000000e-03
2.00000000e-03
2.00000000e-03
2.00000000e-03
2.00000000e-03
2.00000000e-03
2.00000000e-03
2.00000000e-03
2.00000000e-03
2.00000000e-03
2.00000000e-03
2.00000000e-03
2.00000000e-03
2.00000000e-03
2.00000000e-03
2.00000000e-03
2.00000000e-03
2.00000000e-03
2.00000000e-03
2.00000000e-03
2.00000000e-03
2.00000000e-03
2.00000000e-03
2.00000000e-03
2.00000000e-03
2.00000000e-03
2.00000000e-03
2.00000000e-03
2.00000000e-03
2.00000000e-03
2.00000000e-03
2.00000000e-03
2.00000000e-03
2.00000000e-03
2.00000000e-03
2.00000000e-03
2.00000000e-03
2.00000000e-03
2.00000000e-03
2.00000000e-03
2.00000000e-03
2.00000000e-03
2.00000000e-03
2.00000000e-03
2.00000000e-03
2.00000000e-03
