# vtk DataFile Version 2.0
Particle data
ASCII
DATASET POLYDATA
POINTS 469 double
3.33900000e-02	-1.41134000e-02	1.43825000e-02
2.64062000e-02	-9.91645000e-03	1.30994000e-02
1.77109000e-02	-3.58545000e-02	1.43418000e-02
2.59700000e-02	1.18775000e-02	6.69782000e-03
2.89476000e-02	-3.33362000e-03	2.52619000e-03
2.83400000e-02	-2.28732000e-02	1.99989000e-03
2.88872000e-02	-2.76563000e-02	1.79120000e-02
1.05576000e-02	-1.07468000e-02	1.80955000e-02
4.35060000e-03	-3.97385000e-02	1.71301000e-02
1.51896000e-02	3.44505000e-03	1.61311000e-02
3.47628000e-02	-1.05928000e-02	7.52184000e-03
2.54323000e-02	-1.65684000e-02	1.81003000e-02
-1.02059000e-02	-3.86407000e-02	7.08222000e-03
2.33361000e-02	-1.20858000e-02	4.19347000e-03
3.30132000e-02	-7.30139000e-03	1.40438000e-02
2.77475000e-02	1.91990000e-02	9.78718000e-03
1.39670000e-02	-1.75878000e-02	7.11931000e-03
2.41495000e-02	-2.26246000e-02	2.40993000e-03
1.81841000e-02	-5.51266000e-03	1.11021000e-02
3.58341000e-02	-1.76410000e-02	4.86659000e-03
3.60487000e-02	-5.49655000e-03	1.99937000e-03
9.82721000e-03	-3.51639000e-02	1.81003000e-02
3.41719000e-02	1.90491000e-02	2.04515000e-03
1.86579000e-02	-3.34639000e-02	5.10167000e-03
2.41448000e-02	-2.61574000e-02	5.60194000e-03
5.55739000e-03	-5.86470000e-03	1.28424000e-02
3.99547000e-02	2.70319000e-04	1.46389000e-02
2.09216000e-02	-2.82625000e-02	1.81003000e-02
3.34421000e-02	1.28787000e-02	1.18605000e-02
-7.02911000e-05	-2.90119000e-02	1.80876000e-02
2.75747000e-02	-1.50568000e-02	8.83408000e-03
5.12514000e-03	-3.95969000e-02	9.19135000e-03
2.41158000e-02	-1.88587000e-02	7.97803000e-03
1.42821000e-02	-2.67061000e-02	1.51639000e-02
-8.79084000e-03	-3.48891000e-02	6.81452000e-03
1.87605000e-02	-2.13700000e-02	1.35841000e-02
3.57880000e-02	-1.76897000e-02	9.40074000e-03
3.87889000e-02	9.70036000e-03	1.05546000e-02
2.69442000e-02	-1.92785000e-02	1.42546000e-02
3.16192000e-02	-1.11421000e-02	4.92512000e-03
3.52532000e-02	9.35227000e-03	1.23929000e-02
1.89837000e-02	-3.08366000e-02	1.57308000e-02
1.14052000e-03	-2.24067000e-02	3.53086000e-03
3.45790000e-02	-1.18549000e-02	1.79511000e-02
1.42511000e-02	-2.27082000e-02	1.51409000e-02
3.55665000e-02	-4.71759000e-03	1.16035000e-02
2.37414000e-02	-7.41078000e-03	1.14808000e-02
3.61446000e-02	2.13364000e-03	1.33593000e-02
2.02378000e-02	-8.17595000e-03	8.93207000e-03
3.84648000e-02	-1.09053000e-02	1.80008000e-02
2.16010000e-02	-1.06570000e-04	2.00320000e-03
2.60594000e-02	-1.50657000e-03	9.00560000e-03
3.95156000e-02	5.67289000e-03	1.23445000e-02
1.22256000e-02	-1.36388000e-02	2.00187000e-03
1.83589000e-02	8.83234000e-03	9.28137000e-03
2.65029000e-02	1.28589000e-02	1.43912000e-02
2.08114000e-02	1.28582000e-02	9.51017000e-03
3.36766000e-02	-1.55945000e-07	1.81005000e-02
2.96816000e-03	-3.06268000e-02	1.34413000e-02
3.15120000e-03	-2.65181000e-02	1.47406000e-02
1.29738000e-03	-3.41194000e-02	1.24366000e-02
1.59517000e-02	-2.51360000e-02	1.18860000e-02
1.73091000e-02	-1.41865000e-02	1.78005000e-02
3.08424000e-02	1.69128000e-02	8.48660000e-03
1.85023000e-02	-2.71862000e-02	3.76691000e-03
3.37080000e-02	-3.93329000e-03	5.43928000e-03
8.53169000e-03	-8.23113000e-03	4.75211000e-03
2.37832000e-02	-2.13172000e-02	1.56152000e-02
5.31051000e-03	-1.89517000e-02	6.29319000e-03
-1.96261000e-03	-3.59872000e-02	2.00737000e-03
3.45624000e-02	9.30645000e-03	8.16158000e-03
4.39621000e-03	-3.84852000e-02	5.41964000e-03
3.70050000e-02	-1.51682000e-02	1.77837000e-02
3.74286000e-02	-1.39583000e-02	1.39947000e-02
1.68658000e-02	-3.62665000e-02	2.88086000e-03
3.20199000e-02	8.21391000e-03	1.81001000e-02
1.79248000e-04	-3.09084000e-02	5.64731000e-03
3.30973000e-02	-2.23581000e-02	6.26553000e-03
-1.04224000e-02	-3.85937000e-02	1.73916000e-02
2.78366000e-02	1.94360000e-02	1.78213000e-02
3.48562000e-02	2.19530000e-03	9.55806000e-03
2.02544000e-02	-1.17450000e-02	7.12395000e-03
6.66154000e-03	-2.71925000e-02	7.75601000e-03
1.20124000e-02	-2.50676000e-02	1.80491000e-02
3.34160000e-03	-3.50849000e-02	3.59617000e-03
3.91824000e-02	-7.91909000e-03	2.75427000e-03
2.35683000e-02	-9.70227000e-03	1.80999000e-02
3.31436000e-02	2.00695000e-02	1.00723000e-02
1.52876000e-02	-2.75373000e-02	6.25859000e-03
1.13436000e-02	-1.49213000e-02	5.70158000e-03
3.99080000e-02	-1.48207000e-03	1.07187000e-02
3.42185000e-02	-7.82776000e-03	4.68458000e-03
1.16931000e-02	-3.81873000e-02	9.34994000e-03
3.99592000e-02	1.22370000e-03	2.57265000e-03
2.27435000e-02	-1.95752000e-02	1.16795000e-02
3.89736000e-04	-3.99825000e-02	1.76335000e-02
3.49500000e-02	1.92890000e-02	6.13757000e-03
2.12924000e-03	-2.31943000e-02	1.27564000e-02
1.37311000e-02	-2.99704000e-02	1.04833000e-02
2.81643000e-02	-1.88206000e-02	1.00524000e-02
1.45718000e-03	-2.45715000e-02	9.06108000e-03
1.79572000e-02	-2.18319000e-03	1.33549000e-02
3.48720000e-02	1.17407000e-02	1.55782000e-02
5.28652000e-03	-3.33316000e-02	1.52692000e-02
-4.82425000e-03	-3.42792000e-02	1.48813000e-02
3.95450000e-02	-5.46270000e-03	1.08547000e-02
1.69299000e-02	-2.02714000e-02	6.97687000e-03
1.62960000e-03	-2.84459000e-02	1.02522000e-02
1.55872000e-02	-3.14610000e-03	2.77706000e-03
3.02083000e-02	-1.12227000e-02	8.71197000e-03
2.11190000e-02	1.44870000e-02	3.06502000e-03
3.66476000e-02	-2.67780000e-03	1.81002000e-02
3.18403000e-02	4.21758000e-03	1.81000000e-02
2.21028000e-02	1.03576000e-02	2.24829000e-03
-2.80598000e-03	-3.75774000e-02	1.76726000e-02
-1.00510000e-02	-3.17986000e-02	1.99899000e-03
3.96971000e-02	-3.71676000e-03	1.44496000e-02
2.37111000e-02	1.91200000e-02	5.82228000e-03
2.41146000e-02	-8.88607000e-03	6.46337000e-03
2.46653000e-02	-3.14781000e-02	2.12709000e-03
3.32841000e-02	-1.93322000e-03	2.00012000e-03
9.79565000e-03	-3.21475000e-02	1.25574000e-02
3.33054000e-02	-2.21019000e-02	1.71338000e-02
-7.55531000e-03	-3.54928000e-02	2.00211000e-03
8.75141000e-03	-3.90163000e-02	1.81006000e-02
3.89160000e-02	-8.92601000e-03	1.42822000e-02
2.81102000e-02	-2.50922000e-02	5.31980000e-03
3.16186000e-02	-2.14384000e-02	1.21759000e-02
2.88181000e-02	1.48880000e-02	1.12797000e-02
3.11886000e-02	5.47733000e-03	1.99983000e-03
2.68926000e-02	1.36328000e-02	2.00065000e-03
-1.47409000e-03	-3.99242000e-02	9.72712000e-03
3.19823000e-02	-6.58241000e-03	1.80999000e-02
2.68436000e-02	-2.75806000e-02	8.18845000e-03
1.98556000e-02	-1.55488000e-02	5.95341000e-03
-6.29726000e-03	-3.23352000e-02	8.75650000e-03
2.37168000e-02	-1.50389000e-02	6.86284000e-03
2.98753000e-02	-2.65711000e-02	2.00026000e-03
4.08571000e-03	-3.74049000e-02	1.28490000e-02
1.77698000e-02	-6.01011000e-03	1.50796000e-02
-8.00758000e-03	-3.53068000e-02	1.80649000e-02
3.82461000e-02	-1.13874000e-02	1.10416000e-02
2.46984000e-02	2.95890000e-03	1.34287000e-02
3.95969000e-02	5.16687000e-03	2.01005000e-03
2.97312000e-02	-2.02528000e-02	5.78053000e-03
3.74625000e-02	-1.39532000e-02	2.70486000e-03
3.09292000e-02	2.13906000e-02	1.99999000e-03
3.03012000e-02	-1.35489000e-02	1.99989000e-03
1.85152000e-02	-1.44113000e-02	9.54629000e-03
-2.18121000e-03	-2.36038000e-02	1.15899000e-02
3.00240000e-02	-1.62003000e-03	1.78942000e-02
1.25307000e-02	-2.41034000e-02	9.87988000e-03
2.80873000e-02	-2.27857000e-02	9.53459000e-03
3.30564000e-02	-5.86475000e-04	1.18319000e-02
2.28920000e-02	1.07004000e-04	5.89762000e-03
2.00524000e-02	1.06968000e-02	1.32565000e-02
2.58925000e-02	-2.62010000e-02	1.99933000e-03
2.57034000e-02	-2.65779000e-03	5.19227000e-03
-6.29227000e-03	-3.94911000e-02	1.81000000e-02
2.76042000e-02	-1.44762000e-02	4.87672000e-03
2.17418000e-02	-2.97615000e-02	9.14565000e-03
3.23859000e-02	-2.34572000e-02	2.00190000e-03
3.91217000e-03	-3.00719000e-02	7.37784000e-03
3.34562000e-02	1.45031000e-02	1.81004000e-02
9.39394000e-03	-2.46023000e-02	6.32600000e-03
2.81885000e-02	-1.34410000e-02	1.24415000e-02
1.82680000e-02	-1.55363000e-03	5.28276000e-03
3.04893000e-02	-2.57968000e-02	8.45702000e-03
2.91705000e-02	1.56754000e-02	1.81001000e-02
3.01869000e-02	1.93232000e-02	5.36267000e-03
2.44204000e-02	-3.16637000e-02	1.63135000e-02
-1.30672000e-02	-2.67376000e-02	2.05246000e-03
3.58311000e-02	4.48679000e-03	1.80986000e-02
2.60734000e-02	-1.23485000e-02	1.63570000e-02
3.53026000e-02	-1.87739000e-02	1.81000000e-02
1.54563000e-02	-3.68475000e-02	9.54383000e-03
1.53932000e-02	-2.47619000e-02	2.00191000e-03
1.43037000e-03	-3.71809000e-02	9.86606000e-03
1.38094000e-02	-3.54164000e-02	1.51501000e-02
1.11638000e-02	-3.63015000e-02	5.86244000e-03
3.39072000e-02	1.20536000e-02	5.32980000e-03
1.88126000e-02	-2.35203000e-02	5.59896000e-03
3.96261000e-02	-5.34639000e-03	1.81011000e-02
3.71144000e-02	1.48523000e-02	1.44429000e-02
1.79630000e-02	-2.49237000e-02	1.80986000e-02
2.34249000e-02	-2.61830000e-02	9.73991000e-03
2.63667000e-02	-3.21065000e-04	2.01475000e-03
1.86869000e-02	-3.03963000e-02	1.16477000e-02
3.29797000e-02	-1.55174000e-02	1.81024000e-02
2.21868000e-02	-2.77100000e-02	1.99944000e-03
2.24482000e-02	1.39469000e-02	1.31982000e-02
1.31060000e-02	-2.02764000e-02	1.81009000e-02
3.48865000e-02	1.92874000e-02	1.40076000e-02
3.95404000e-02	5.98253000e-03	1.80603000e-02
2.53699000e-02	-5.04292000e-03	2.00040000e-03
2.28138000e-02	7.85767000e-03	1.26253000e-02
1.28829000e-02	-3.03675000e-02	1.43725000e-02
1.39765000e-02	-2.04464000e-02	1.06274000e-02
2.17765000e-02	-4.55057000e-03	8.22687000e-03
5.39553000e-03	-1.62558000e-02	1.63321000e-02
3.60208000e-02	-1.76152000e-03	1.42582000e-02
3.23974000e-02	1.95077000e-03	1.48520000e-02
3.20077000e-02	1.84953000e-02	1.80997000e-02
8.51860000e-03	-3.54946000e-02	1.43352000e-02
1.01811000e-02	-6.72577000e-03	1.78546000e-02
3.12670000e-02	3.28359000e-03	8.10925000e-03
3.14950000e-02	9.67017000e-03	1.41688000e-02
3.78197000e-02	9.01731000e-03	5.84332000e-03
2.38956000e-02	-1.52384000e-02	1.46531000e-02
2.88295000e-02	1.08920000e-02	1.14480000e-02
-3.80484000e-04	-2.81978000e-02	1.38952000e-02
8.71996000e-03	-2.01352000e-02	2.00647000e-03
-6.15477000e-03	-3.09788000e-02	1.28213000e-02
8.77919000e-03	-2.99491000e-02	1.57452000e-02
2.31201000e-02	-3.95216000e-03	1.45483000e-02
1.91633000e-02	-1.78019000e-02	2.72249000e-03
[...]
POINT_DATA 469
SCALARS Radius double 1
LOOKUP_TABLE default
2.00000000e-03
2.00000000e-03
2.00000000e-03
2.00000000e-03
2.00000000e-03
2.00000000e-03
2.00000000e-03
2.00000000e-03
2.00000000e-03
2.00000000e-03
2.00000000e-03
2.00000000e-03
2.00000000e-03
2.00000000e-03
2.00000000e-03
2.00000000e-03
2.00000000e-03
2.00000000e-03
2.00000000e-03
2.00000000e-03
2.00000000e-03
2.00000000e-03
2.00000000e-03
2.00000000e-03
2.00000000e-03
2.00000000e-03
2.00000000e-03
2.00000000e-03
2.00000000e-03
2.00000000e-03
2.00000000e-03
2.00000000e-03
2.00000000e-03
2.00000000e-03
2.00000000e-03
2.00000000e-03
2.00000000e-03
2.00000000e-03
2.00000000e-03
2.00000000e-03
2.00000000e-03
2.00000000e-03
2.00000000e-03
2.00000000e-03
2.00000000e-03
2.00000000e-03
2.00000000e-03
2.00000000e-03
2.00000000e-03
2.00000000e-03
2.00000000e-03
2.00000000e-03
2.00000000e-03
2.00000000e-03
2.00000000e-03
2.00000000e-03
2.00000000e-03
2.00000000e-03
2.00000000e-03
2.00000000e-03
2.00000000e-03
2.00000000e-03
2.00000000e-03
2.00000000e-03
2.00000000e-03
2.00000000e-03
2.00000000e-03
2.00000000e-03
2.00000000e-03
2.00000000e-03
2.00000000e-03
2.00000000e-03
2.00000000e-03
2.00000000e-03
2.00000000e-03
2.00000000e-03
2.00000000e-03
2.00000000e-03
2.00000000e-03
2.00000000e-03
2.00000000e-03
2.00000000e-03
2.00000000e-03
2.00000000e-03
2.00000000e-03
2.00000000e-03
2.00000000e-03
2.00000000e-03
2.00000000e-03
2.00000000e-03
2.00000000e-03
2.00000000e-03
2.00000000e-03
2.00000000e-03
2.00000000e-03
2.00000000e-03
2.00000000e-03
2.00000000e-03
2.00000000e-03
2.00000000e-03
2.00000000e-03
2.00000000e-03
2.00000000e-03
2.00000000e-03
2.00000000e-03
2.00000000e-03
2.00000000e-03
2.00000000e-03
2.00000000e-03
2.00000000e-03
2.00000000e-03
2.00000000e-03
2.00000000e-03
2.00000000e-03
2.00000000e-03
2.00000000e-03
2.00000000e-03
2.00000000e-03
2.00000000e-03
2.00000000e-03
2.00000000e-03
2.00000000e-03
2.00000000e-03
2.00000000e-03
2.00000000e-03
2.00000000e-03
2.00000000e-03
2.00000000e-03
2.00000000e-03
2.00000000e-03
2.00000000e-03
2.00000000e-03
2.00000000e-03
2.00000000e-03
2.00000000e-03
2.00000000e-03
2.00000000e-03
2.00000000e-03
2.00000000e-03
2.00000000e-03
2.00000000e-03
2.00000000e-03
2.00000000e-03
2.00000000e-03
2.00000000e-03
2.00000000e-03
2.00000000e-03
2.00000000e-03
2.00000000e-03
2.00000000e-03
2.00000000e-03
2.00000000e-03
2.00000000e-03
2.00000000e-03
2.00000000e-03
2.00000000e-03
2.00000000e-03
2.00000000e-03
2.00000000e-03
2.00000000e-03
2.00000000e-03
2.00000000e-03
2.00000000e-03
2.00000000e-03
2.00000000e-03
2.00000000e-03
2.00000000e-03
2.00000000e-03
2.00000000e-03
2.00000000e-03
2.00000000e-03
2.00000000e-03
2.00000000e-03
2.00000000e-03
2.00000000e-03
2.00000000e-03
2.00000000e-03
2.00000000e-03
2.00000000e-03
2.00000000e-03
2.00000000e-03
2.00000000e-03
2.00000000e-03
2.00000000e-03
2.00000000e-03
2.00000000e-03
2.00000000e-03
2.00000000e-03
2.00000000e-03
2.00000000e-03
2.00000000e-03
2.00000000e-03
2.00000000e-03
2.00000000e-03
2.00000000e-03
2.00000000e-03
2.00000000e-03
2.00000000e-03
2.00000000e-03
2.00000000e-03
2.00000000e-03
2.00000000e-03
2.00000000e-03
2.00000000e-03
2.00000000e-03
2.00000000e-03
2.00000000e-03
2.00000000e-03
2.00000000e-03
2.00000000e-03
2.00000000e-03
2.00000000e-03
2.00000000e-03
2.00000000e-03
2.00000000e-03
2.00000000e-03
2.00000000e-03
2.00000000e-03
2.00000000e-03
2.00000000e-03
2.00000000e-03
2.00000000e-03
2.00000000e-03
2.00000000e-03
2.00000000e-03
2.00000000e-03
2.00000000e-03
2.00000000e-03
2.00000000e-03
2.00000000e-03
2.00000000e-03
2.00000000e-03
2.00000000e-03
2.00000000e-03
2.00000000e-03
2.00000000e-03
2.00000000e-03
2.00000000e-03
2.00000000e-03
2.00000000e-03
2.00000000e-03
2.00000000e-03
2.00000000e-03
2.00000000e-03
2.00000000e-03
2.00000000e-03
2.00000000e-03
2.00000000e-03
2.00000000e-03
2.00000000e-03
2.00000000e-03
2.00000000e-03
2.00000000e-03
2.00000000e-03
2.00000000e-03
2.00000000e-03
2.00000000e-03
2.00000000e-03
2.00000000e-03
2.00000000e-03
2.00000000e-03
2.00000000e-03
2.00000000e-03
2.00000000e-03
2.00000000e-03
2.00000000e-03
2.00000000e-03
2.00000000e-03
2.00000000e-03
2.00000000e-03
2.00000000e-03
2.00000000e-03
2.00000000e-03
2.00000000e-03
2.00000000e-03
2.00000000e-03
2.00000000e-03
2.00000000e-03
2.00000000e-03
2.00000000e-03
2.00000000e-03
2.00000000e-03
2.00000000e-03
2.00000000e-03
2.00000000e-03
2.00000000e-03
2.00000000e-03
2.00000000e-03
2.00000000e-03
2.00000000e-03
2.00000000e-03
2.00000000e-03
2.00000000e-03
2.00000000e-03
2.00000000e-03
2.00000000e-03
2.00000000e-03
2.00000000e-03
2.00000000e-03
2.00000000e-03
2.00000000e-03
2.00000000e-03
2.00000000e-03
2.00000000e-03
2.00000000e-03
2.00000000e-03
2.00000000e-03
2.00000000e-03
2.00000000e-03
2.00000000e-03
2.00000000e-03
2.00000000e-03
2.00000000e-03
2.00000000e-03
2.00000000e-03
2.00000000e-03
2.00000000e-03
2.00000000e-03
2.00000000e-03
2.00000000e-03
2.00000000e-03
2.00000000e-03
2.00000000e-03
2.00000000e-03
2.00000000e-03
2.00000000e-03
2.00000000e-03
2.00000000e-03
2.00000000e-03
2.00000000e-03
2.00000000e-03
2.00000000e-03
2.00000000e-03
2.00000000e-03
2.00000000e-03
2.00000000e-03
2.00000000e-03
2.00000000e-03
2.00000000e-03
2.00000000e-03
2.00000000e-03
2.00000000e-03
2.00000000e-03
2.00000000e-03
2.00000000e-03
2.00000000e-03
2.00000000e-03
2.00000000e-03
2.00000000e-03
2.00000000e-03
2.00000000e-03
2.00000000e-03
2.00000000e-03
2.00000000e-03
2.00000000e-03
2.00000000e-03
2.00000000e-03
2.00000000e-03
2.00000000e-03
2.00000000e-03
2.00000000e-03
2.00000000e-03
2.00000000e-03
2.00000000e-03
2.00000000e-03
2.00000000e-03
2.00000000e-03
2.00000000e-03
2.00000000e-03
2.00000000e-03
2.00000000e-03
2.00000000e-03
2.00000000e-03
2.00000000e-03
2.00000000e-03
2.00000000e-03
2.00000000e-03
2.00000000e-03
2.00000000e-03
2.00000000e-03
2.00000000e-03
2.00000000e-03
2.00000000e-03
2.00000000e-03
2.00000000e-03
2.00000000e-03
2.00000000e-03
2.00000000e-03
2.00000000e-03
2.00000000e-03
2.00000000e-03
2.00000000e-03
2.00000000e-03
2.00000000e-03
2.00000000e-03
2.00000000e-03
2.00000000e-03
2.00000000e-03
2.00000000e-03
2.00000000e-03
2.00000000e-03
2.00000000e-03
2.00000000e-03
2.00000000e-03
2.00000000e-03
2.00000000e-03
2.00000000e-03
2.00000000e-03
2.00000000e-03
2.00000000e-03
2.00000000e-03
2.00000000e-03
2.00000000e-03
2.00000000e-03
2.00000000e-03
2.00000000e-03
2.00000000e-03
2.00000000e-03
2.00000000e-03
2.00000000e-03
2.00000000e-03
2.00000000e-03
2.00000000e-03
2.00000000e-03
2.00000000e-03
2.00000000e-03
2.00000000e-03
2.00000000e-03
2.00000000e-03
2.00000000e-03
2.00000000e-03
2.00000000e-03
2.00000000e-03
2.00000000e-03
2.00000000e-03
2.00000000e-03
2.00000000e-03
2.00000000e-03
2.00000000e-03
2.00000000e-03
2.00000000e-03
2.00000000e-03
2.00000000e-03
2.00000000e-03
2.00000000e-03
2.00000000e-03
2.00000000e-03
2.00000000e-03
2.00000000e-03
2.00000000e-03
2.00000000e-03
2.00000000e-03
2.00000000e-03
2.00000000e-03
2.00000000e-03
2.00000000e-03
2.00000000e-03
2.00000000e-03
2.00000000e-03
2.00000000e-03
2.00000000e-03
2.00000000e-03
2.00000000e-03
2.00000000e-03
2.00000000e-03
2.00000000e-03
2.00000000e-03
2.00000000e-03
2.00000000e-03
