# vtk DataFile Version 2.0
Particle data
ASCII
DATASET POLYDATA
POINTS 469 double
-4.99444000e-03	-3.37279000e-02	8.85145000e-03
2.30374000e-02	1.10792000e-03	1.52724000e-02
3.21518000e-02	7.56203000e-03	1.99940000e-03
3.38277000e-02	-2.13343000e-02	1.77459000e-02
3.13204000e-02	7.85177000e-03	5.90062000e-03
-6.29755000e-03	-3.94809000e-02	2.43825000e-03
-6.33097000e-04	-2.54281000e-02	1.27165000e-02
1.53554000e-02	-2.47769000e-02	1.76240000e-02
2.59811000e-02	1.69027000e-02	1.78841000e-02
3.59085000e-02	-6.76076000e-03	1.07165000e-02
-1.83244000e-03	-3.99508000e-02	1.78214000e-02
9.29733000e-03	-1.54857000e-02	1.80047000e-02
2.35160000e-02	2.03388000e-02	1.40991000e-02
3.77039000e-02	1.33189000e-02	2.00498000e-03
-3.43619000e-03	-3.97791000e-02	1.36722000e-02
2.96129000e-02	-1.62363000e-02	1.24812000e-02
2.79370000e-02	-2.38856000e-02	1.41694000e-02
2.33159000e-02	6.95788000e-03	2.01355000e-03
1.67788000e-02	-2.72929000e-02	1.38384000e-02
2.53167000e-03	-3.77676000e-02	1.09562000e-02
7.51366000e-03	-3.56011000e-02	2.02674000e-03
2.55849000e-02	5.22199000e-03	1.80923000e-02
3.35017000e-02	-1.74041000e-02	1.10132000e-02
1.43292000e-02	-1.63620000e-02	2.00163000e-03
2.91815000e-02	-2.68822000e-03	1.99971000e-03
3.67199000e-02	-9.93256000e-03	1.44471000e-02
1.56485000e-02	-3.67613000e-02	1.45262000e-02
1.71140000e-02	-4.97519000e-03	1.29930000e-02
2.78721000e-02	-2.86629000e-02	1.69914000e-02
1.41539000e-02	-1.52933000e-02	1.33092000e-02
2.44674000e-02	1.52367000e-02	1.01614000e-02
-3.86110000e-03	-2.73214000e-02	2.01256000e-03
2.23224000e-02	8.15850000e-03	9.11691000e-03
2.62333000e-02	-2.74749000e-03	1.79362000e-02
2.69112000e-02	-1.06545000e-02	9.40325000e-03
3.83765000e-02	1.10208000e-02	1.22847000e-02
-4.83113000e-03	-3.66565000e-02	4.86124000e-03
1.93054000e-02	-3.06063000e-02	9.15441000e-03
1.47346000e-02	-1.17068000e-02	1.00043000e-02
2.58590000e-02	-9.86487000e-03	2.33625000e-03
1.59431000e-02	-3.25964000e-02	8.05704000e-03
1.79968000e-02	1.94174000e-02	1.32594000e-02
3.26987000e-02	-7.24500000e-04	1.99961000e-03
1.24538000e-02	-1.49758000e-02	9.67621000e-03
3.42104000e-02	-1.23627000e-02	1.24999000e-02
7.84511000e-03	-3.42494000e-02	1.06263000e-02
8.02782000e-03	-2.60648000e-02	1.42833000e-02
6.01720000e-03	-2.82626000e-02	7.20101000e-03
1.38751000e-02	-1.93100000e-02	1.13933000e-02
3.43144000e-03	-1.88137000e-02	1.80705000e-02
2.48655000e-02	8.28498000e-03	1.25245000e-02
2.16438000e-02	8.22512000e-04	1.99932000e-03
3.28550000e-02	-1.50325000e-02	1.51499000e-02
1.65513000e-02	-2.33241000e-02	7.69906000e-03
3.70255000e-02	-1.49125000e-02	5.08140000e-03
2.56977000e-02	-3.06053000e-02	1.42532000e-02
3.47052000e-02	-1.02259000e-02	9.12410000e-03
7.12964000e-03	-3.26517000e-02	1.52910000e-02
3.93380000e-02	-6.93935000e-03	1.40189000e-02
3.62709000e-02	-4.72061000e-03	1.80919000e-02
3.89731000e-02	8.87267000e-03	1.73444000e-02
2.12360000e-02	-1.59043000e-02	1.11974000e-02
3.48241000e-03	-2.59556000e-02	1.81003000e-02
2.65450000e-02	-2.51975000e-02	9.95545000e-03
3.60874000e-02	1.65868000e-02	3.65728000e-03
5.44857000e-03	-3.96117000e-02	6.77533000e-03
3.50852000e-02	-4.07021000e-04	5.19371000e-03
2.86194000e-02	1.13647000e-02	1.55027000e-02
3.87675000e-02	-9.62567000e-03	1.10249000e-02
3.53906000e-02	5.39552000e-03	1.07548000e-02
1.75431000e-02	-3.58653000e-02	6.39901000e-03
2.37542000e-02	1.30488000e-02	2.53094000e-03
-2.90402000e-03	-3.41919000e-02	1.80994000e-02
1.24624000e-02	-3.49928000e-02	8.59676000e-03
3.92659000e-03	-2.18476000e-02	6.51787000e-03
1.41203000e-02	-3.58196000e-02	1.81003000e-02
1.77786000e-02	-2.85094000e-02	5.67684000e-03
1.74617000e-02	-4.22560000e-03	4.95300000e-03
2.82595000e-02	8.40935000e-03	2.36280000e-03
1.35743000e-02	-2.12260000e-02	1.80938000e-02
7.60648000e-03	-3.21832000e-02	5.82243000e-03
2.51691000e-02	-8.27584000e-03	6.70114000e-03
3.61020000e-02	-2.83201000e-03	2.17975000e-03
3.73311000e-02	5.30458000e-03	1.81002000e-02
2.80153000e-02	-6.51359000e-03	1.99980000e-03
5.55693000e-03	-3.95982000e-02	1.99991000e-03
-5.82398000e-03	-3.00135000e-02	1.00716000e-02
3.03845000e-02	-2.01080000e-02	1.31147000e-02
3.11149000e-02	3.87320000e-05	5.59199000e-03
2.30958000e-02	-2.17580000e-02	6.63583000e-03
1.00726000e-02	-3.54822000e-02	5.42669000e-03
2.35551000e-02	3.59190000e-03	4.16110000e-03
2.66017000e-02	2.76454000e-03	8.50584000e-03
1.74004000e-02	-3.59013000e-02	1.03990000e-02
3.38434000e-02	7.55047000e-03	1.81001000e-02
1.89256000e-02	7.88383000e-03	2.69542000e-03
2.98634000e-02	-2.09790000e-02	8.91001000e-03
3.07868000e-02	-9.94148000e-03	1.80970000e-02
8.33422000e-03	-1.93699000e-02	1.78226000e-02
1.99245000e-02	-1.07227000e-02	1.33606000e-02
2.52200000e-02	-1.78230000e-02	1.99922000e-03
2.54822000e-02	-1.72261000e-02	1.10378000e-02
2.42661000e-02	-2.51842000e-02	1.32573000e-02
2.60003000e-02	1.29090000e-02	1.81006000e-02
3.33519000e-02	-1.39845000e-02	8.94747000e-03
8.73242000e-03	-2.14165000e-02	2.00261000e-03
2.91391000e-02	-1.70552000e-02	2.21842000e-03
1.47627000e-02	-2.03382000e-02	1.99982000e-03
3.60867000e-02	1.78292000e-03	1.99984000e-03
2.96213000e-02	1.53836000e-04	9.30039000e-03
2.62533000e-02	-2.09271000e-02	4.29865000e-03
1.01212000e-02	-3.57470000e-02	1.80999000e-02
4.39081000e-03	-3.35988000e-02	1.25345000e-02
2.94720000e-02	-2.21609000e-02	2.26980000e-03
3.39250000e-02	1.42985000e-03	1.81003000e-02
3.55454000e-02	-6.78862000e-03	1.99932000e-03
2.23257000e-02	-3.31428000e-02	1.00845000e-02
2.84903000e-02	-1.43201000e-02	9.15562000e-03
3.07711000e-02	1.48769000e-02	1.40465000e-02
2.20006000e-02	1.84373000e-02	7.87167000e-03
1.53347000e-03	-3.02304000e-02	2.00637000e-03
5.65597000e-03	-2.25980000e-02	1.80920000e-02
4.14225000e-03	-3.97709000e-02	1.64706000e-02
3.48189000e-02	5.23401000e-03	1.49885000e-02
2.45362000e-02	2.12363000e-02	1.80700000e-02
3.77804000e-03	-3.68908000e-02	4.36771000e-03
-9.12041000e-03	-3.88934000e-02	5.26748000e-03
2.92769000e-02	1.09595000e-02	1.15788000e-02
2.35940000e-02	-2.80535000e-02	8.25278000e-03
2.13848000e-02	-2.62234000e-02	1.99787000e-03
1.90942000e-02	-3.22837000e-02	5.53042000e-03
2.58955000e-02	2.30098000e-02	6.10803000e-03
9.40349000e-03	-3.09397000e-02	1.81005000e-02
3.28295000e-02	2.00598000e-02	1.36835000e-02
1.79123000e-02	-1.36293000e-02	1.14879000e-02
3.94302000e-02	3.02754000e-03	5.31943000e-03
2.88164000e-02	1.32522000e-02	5.96990000e-03
-8.73195000e-03	-3.63138000e-02	2.23277000e-03
2.97648000e-02	-1.26483000e-02	1.42400000e-02
1.97942000e-02	-3.02143000e-02	1.72879000e-02
3.60914000e-02	-6.34392000e-04	1.54467000e-02
2.00267000e-03	-3.42025000e-02	1.99904000e-03
2.37192000e-03	-3.62975000e-02	1.46880000e-02
2.30256000e-02	-3.26458000e-02	6.17301000e-03
-2.02799000e-04	-2.94648000e-02	6.51652000e-03
1.62748000e-03	-3.99617000e-02	2.65055000e-03
3.68960000e-02	-1.53346000e-02	1.05728000e-02
-2.13175000e-03	-3.87560000e-02	2.00679000e-03
1.90105000e-02	-1.93892000e-02	8.71842000e-03
2.67240000e-02	-6.71321000e-03	1.81005000e-02
4.70883000e-03	-2.96216000e-02	1.22561000e-02
2.62409000e-02	-1.36635000e-02	1.80091000e-02
-1.19709000e-02	-3.80589000e-02	1.18123000e-02
1.11539000e-02	-3.83721000e-02	1.52502000e-02
1.73474000e-02	-8.75240000e-03	1.06675000e-02
1.33602000e-02	-2.30586000e-02	1.00962000e-02
-1.52825000e-02	-3.68760000e-02	5.30152000e-03
2.89485000e-02	1.30261000e-03	2.11553000e-03
3.39374000e-02	1.95244000e-02	1.99991000e-03
4.96353000e-03	-2.80966000e-02	2.61353000e-03
2.43281000e-02	1.60862000e-02	5.54324000e-03
-1.23373000e-02	-3.80360000e-02	2.04784000e-03
3.98510000e-02	-2.97305000e-03	1.40740000e-02
2.24415000e-02	-2.48228000e-02	1.81003000e-02
3.15256000e-02	-8.91468000e-03	1.99970000e-03
2.29021000e-02	-2.86498000e-03	1.57149000e-02
1.47157000e-02	-1.53384000e-02	5.87865000e-03
-4.58625000e-04	-3.35654000e-02	5.11375000e-03
3.09573000e-02	-2.42143000e-02	1.80835000e-02
2.68362000e-02	-1.87249000e-02	7.58562000e-03
-7.55882000e-03	-3.91949000e-02	8.95334000e-03
3.96258000e-02	-4.88753000e-03	2.67044000e-03
9.79926000e-03	-2.46479000e-02	1.09877000e-02
-6.08281000e-03	-3.18157000e-02	1.54897000e-02
1.80835000e-02	-4.02883000e-06	4.49346000e-03
-1.06755000e-02	-3.32533000e-02	1.46369000e-02
1.64236000e-02	-2.79129000e-03	8.75509000e-03
2.97636000e-02	1.81861000e-02	1.80981000e-02
-9.55487000e-03	-3.04207000e-02	1.78119000e-02
1.93517000e-02	-2.14004000e-02	5.27711000e-03
3.24725000e-02	-2.32269000e-02	1.44932000e-02
1.61642000e-02	-1.90666000e-02	5.90070000e-03
1.57040000e-02	-7.29321000e-03	1.69085000e-02
3.35360000e-02	-2.16102000e-02	6.92134000e-03
2.19586000e-02	-8.76033000e-03	1.62719000e-02
-1.56650000e-02	-3.47549000e-02	1.12874000e-02
-8.63815000e-04	-3.31371000e-02	9.84129000e-03
2.58300000e-02	1.99420000e-02	1.05950000e-02
5.00212000e-03	-3.01942000e-02	1.76836000e-02
8.47964000e-03	-1.61015000e-02	3.80151000e-03
3.40940000e-02	-1.24085000e-02	1.79020000e-02
3.47200000e-02	-6.47459000e-03	1.46484000e-02
3.74086000e-02	-1.39661000e-02	1.43045000e-02
2.86701000e-02	-2.78711000e-02	7.87428000e-03
1.35349000e-02	-2.20392000e-02	5.40509000e-03
2.06852000e-02	-2.12304000e-02	1.80201000e-02
3.17758000e-02	-5.22495000e-03	1.07141000e-02
1.89404000e-02	-5.87809000e-03	8.38800000e-03
1.09904000e-02	-1.85730000e-02	8.71937000e-03
3.92987000e-02	-7.33294000e-03	1.80147000e-02
1.30394000e-02	-3.77300000e-02	1.14558000e-02
6.49194000e-03	-3.57736000e-02	7.18516000e-03
2.24315000e-02	-2.31936000e-02	1.03128000e-02
2.87434000e-02	2.23005000e-02	1.81000000e-02
3.57865000e-02	-1.76223000e-02	1.43229000e-02
5.05664000e-03	-3.18886000e-02	8.97932000e-03
1.15165000e-02	-1.91379000e-02	1.46193000e-02
1.74313000e-02	-3.36744000e-02	1.74431000e-02
3.16964000e-02	1.61235000e-02	4.97330000e-03
1.44759000e-02	-3.05333000e-02	1.44897000e-02
3.68666000e-02	2.43254000e-03	1.29995000e-02
3.33148000e-02	-1.42463000e-02	2.00355000e-03
3.98311000e-02	-2.63474000e-03	6.00275000e-03
2.62571000e-02	-1.60030000e-02	1.47649000e-02
3.26767000e-02	2.00726000e-02	9.68651000e-03
3.52184000e-02	3.81405000e-03	5.33418000e-03
[...]
POINT_DATA 469
SCALARS Radius double 1
LOOKUP_TABLE default
2.00000000e-03
2.00000000e-03
2.00000000e-03
2.00000000e-03
2.00000000e-03
2.00000000e-03
2.00000000e-03
2.00000000e-03
2.00000000e-03
2.00000000e-03
2.00000000e-03
2.00000000e-03
2.00000000e-03
2.00000000e-03
2.00000000e-03
2.00000000e-03
2.00000000e-03
2.00000000e-03
2.00000000e-03
2.00000000e-03
2.00000000e-03
2.00000000e-03
2.00000000e-03
2.00000000e-03
2.00000000e-03
2.00000000e-03
2.00000000e-03
2.00000000e-03
2.00000000e-03
2.00000000e-03
2.00000000e-03
2.00000000e-03
2.00000000e-03
2.00000000e-03
2.00000000e-03
2.00000000e-03
2.00000000e-03
2.00000000e-03
2.00000000e-03
2.00000000e-03
2.00000000e-03
2.00000000e-03
2.00000000e-03
2.00000000e-03
2.00000000e-03
2.00000000e-03
2.00000000e-03
2.00000000e-03
2.00000000e-03
2.00000000e-03
2.00000000e-03
2.00000000e-03
2.00000000e-03
2.00000000e-03
2.00000000e-03
2.00000000e-03
2.00000000e-03
2.00000000e-03
2.00000000e-03
2.00000000e-03
2.00000000e-03
2.00000000e-03
2.00000000e-03
2.00000000e-03
2.00000000e-03
2.00000000e-03
2.00000000e-03
2.00000000e-03
2.00000000e-03
2.00000000e-03
2.00000000e-03
2.00000000e-03
2.00000000e-03
2.00000000e-03
2.00000000e-03
2.00000000e-03
2.00000000e-03
2.00000000e-03
2.00000000e-03
2.00000000e-03
2.00000000e-03
2.00000000e-03
2.00000000e-03
2.00000000e-03
2.00000000e-03
2.00000000e-03
2.00000000e-03
2.00000000e-03
2.00000000e-03
2.00000000e-03
2.00000000e-03
2.00000000e-03
2.00000000e-03
2.00000000e-03
2.00000000e-03
2.00000000e-03
2.00000000e-03
2.00000000e-03
2.00000000e-03
2.00000000e-03
2.00000000e-03
2.00000000e-03
2.00000000e-03
2.00000000e-03
2.00000000e-03
2.00000000e-03
2.00000000e-03
2.00000000e-03
2.00000000e-03
2.00000000e-03
2.00000000e-03
2.00000000e-03
2.00000000e-03
2.00000000e-03
2.00000000e-03
2.00000000e-03
2.00000000e-03
2.00000000e-03
2.00000000e-03
2.00000000e-03
2.00000000e-03
2.00000000e-03
2.00000000e-03
2.00000000e-03
2.00000000e-03
2.00000000e-03
2.00000000e-03
2.00000000e-03
2.00000000e-03
2.00000000e-03
2.00000000e-03
2.00000000e-03
2.00000000e-03
2.00000000e-03
2.00000000e-03
2.00000000e-03
2.00000000e-03
2.00000000e-03
2.00000000e-03
2.00000000e-03
2.00000000e-03
2.00000000e-03
2.00000000e-03
2.00000000e-03
2.00000000e-03
2.00000000e-03
2.00000000e-03
2.00000000e-03
2.00000000e-03
2.00000000e-03
2.00000000e-03
2.00000000e-03
2.00000000e-03
2.00000000e-03
2.00000000e-03
2.00000000e-03
2.00000000e-03
2.00000000e-03
2.00000000e-03
2.00000000e-03
2.00000000e-03
2.00000000e-03
2.00000000e-03
2.00000000e-03
2.00000000e-03
2.00000000e-03
2.00000000e-03
2.00000000e-03
2.00000000e-03
2.00000000e-03
2.00000000e-03
2.00000000e-03
2.00000000e-03
2.00000000e-03
2.00000000e-03
2.00000000e-03
2.00000000e-03
2.00000000e-03
2.00000000e-03
2.00000000e-03
2.00000000e-03
2.00000000e-03
2.00000000e-03
2.00000000e-03
2.00000000e-03
2.00000000e-03
2.00000000e-03
2.00000000e-03
2.00000000e-03
2.00000000e-03
2.00000000e-03
2.00000000e-03
2.00000000e-03
2.00000000e-03
2.00000000e-03
2.00000000e-03
2.00000000e-03
2.00000000e-03
2.00000000e-03
2.00000000e-03
2.00000000e-03
2.00000000e-03
2.00000000e-03
2.00000000e-03
2.00000000e-03
2.00000000e-03
2.00000000e-03
2.00000000e-03
2.00000000e-03
2.00000000e-03
2.00000000e-03
2.00000000e-03
2.00000000e-03
2.00000000e-03
2.00000000e-03
2.00000000e-03
2.00000000e-03
2.00000000e-03
2.00000000e-03
2.00000000e-03
2.00000000e-03
2.00000000e-03
2.00000000e-03
2.00000000e-03
2.00000000e-03
2.00000000e-03
2.00000000e-03
2.00000000e-03
2.00000000e-03
2.00000000e-03
2.00000000e-03
2.00000000e-03
2.00000000e-03
2.00000000e-03
2.00000000e-03
2.00000000e-03
2.00000000e-03
2.00000000e-03
2.00000000e-03
2.00000000e-03
2.00000000e-03
2.00000000e-03
2.00000000e-03
2.00000000e-03
2.00000000e-03
2.00000000e-03
2.00000000e-03
2.00000000e-03
2.00000000e-03
2.00000000e-03
2.00000000e-03
2.00000000e-03
2.00000000e-03
2.00000000e-03
2.00000000e-03
2.00000000e-03
2.00000000e-03
2.00000000e-03
2.00000000e-03
2.00000000e-03
2.00000000e-03
2.00000000e-03
2.00000000e-03
2.00000000e-03
2.00000000e-03
2.00000000e-03
2.00000000e-03
2.00000000e-03
2.00000000e-03
2.00000000e-03
2.00000000e-03
2.00000000e-03
2.00000000e-03
2.00000000e-03
2.00000000e-03
2.00000000e-03
2.00000000e-03
2.00000000e-03
2.00000000e-03
2.00000000e-03
2.00000000e-03
2.00000000e-03
2.00000000e-03
2.00000000e-03
2.00000000e-03
2.00000000e-03
2.00000000e-03
2.00000000e-03
2.00000000e-03
2.00000000e-03
2.00000000e-03
2.00000000e-03
2.00000000e-03
2.00000000e-03
2.00000000e-03
2.00000000e-03
2.00000000e-03
2.00000000e-03
2.00000000e-03
2.00000000e-03
2.00000000e-03
2.00000000e-03
2.00000000e-03
2.00000000e-03
2.00000000e-03
2.00000000e-03
2.00000000e-03
2.00000000e-03
2.00000000e-03
2.00000000e-03
2.00000000e-03
2.00000000e-03
2.00000000e-03
2.00000000e-03
2.00000000e-03
2.00000000e-03
2.00000000e-03
2.00000000e-03
2.00000000e-03
2.00000000e-03
2.00000000e-03
2.00000000e-03
2.00000000e-03
2.00000000e-03
2.00000000e-03
2.00000000e-03
2.00000000e-03
2.00000000e-03
2.00000000e-03
2.00000000e-03
2.00000000e-03
2.00000000e-03
2.00000000e-03
2.00000000e-03
2.00000000e-03
2.00000000e-03
2.00000000e-03
2.00000000e-03
2.00000000e-03
2.00000000e-03
2.00000000e-03
2.00000000e-03
2.00000000e-03
2.00000000e-03
2.00000000e-03
2.00000000e-03
2.00000000e-03
2.00000000e-03
2.00000000e-03
2.00000000e-03
2.00000000e-03
2.00000000e-03
2.00000000e-03
2.00000000e-03
2.00000000e-03
2.00000000e-03
2.00000000e-03
2.00000000e-03
2.00000000e-03
2.00000000e-03
2.00000000e-03
2.00000000e-03
2.00000000e-03
2.00000000e-03
2.00000000e-03
2.00000000e-03
2.00000000e-03
2.00000000e-03
2.00000000e-03
2.00000000e-03
2.00000000e-03
2.00000000e-03
2.00000000e-03
2.00000000e-03
2.00000000e-03
2.00000000e-03
2.00000000e-03
2.00000000e-03
2.00000000e-03
2.00000000e-03
2.00000000e-03
2.00000000e-03
2.00000000e-03
2.00000000e-03
2.00000000e-03
2.00000000e-03
2.00000000e-03
2.00000000e-03
2.00000000e-03
2.00000000e-03
2.00000000e-03
2.00000000e-03
2.00000000e-03
2.00000000e-03
2.00000000e-03
2.00000000e-03
2.00000000e-03
2.00000000e-03
2.00000000e-03
2.00000000e-03
2.00000000e-03
2.00000000e-03
2.00000000e-03
2.00000000e-03
2.00000000e-03
2.00000000e-03
2.00000000e-03
2.00000000e-03
2.00000000e-03
2.00000000e-03
2.00000000e-03
2.00000000e-03
2.00000000e-03
2.00000000e-03
2.00000000e-03
2.00000000e-03
2.00000000e-03
2.00000000e-03
2.00000000e-03
2.00000000e-03
2.00000000e-03
2.00000000e-03
2.00000000e-03
2.00000000e-03
2.00000000e-03
2.00000000e-03
2.00000000e-03
2.00000000e-03
2.00000000e-03
2.00000000e-03
2.00000000e-03
2.00000000e-03
2.00000000e-03
2.00000000e-03
2.00000000e-03
2.00000000e-03
2.00000000e-03
2.00000000e-03
2.00000000e-03
2.00000000e-03
2.00000000e-03
2.00000000e-03
2.00000000e-03
2.00000000e-03
2.00000000e-03
2.00000000e-03
2.00000000e-03
2.00000000e-03
2.00000000e-03
2.00000000e-03
2.00000000e-03
2.00000000e-03
2.00000000e-03
2.00000000e-03
2.00000000e-03
2.00000000e-03
2.00000000e-03
2.00000000e-03
2.00000000e-03
2.00000000e-03
2.00000000e-03
2.00000000e-03
2.00000000e-03
2.00000000e-03
2.00000000e-03
2.00000000e-03
2.00000000e-03
2.00000000e-03
2.00000000e-03
