# vtk DataFile Version 2.0
Particle data
ASCII
DATASET POLYDATA
POINTS 469 double
3.39048000e-02	1.05852000e-02	8.50993000e-03
3.25155000e-02	-6.25636000e-05	1.45373000e-02
2.82090000e-02	-1.01622000e-02	6.12793000e-03
6.84165000e-04	-3.36767000e-02	1.01413000e-02
2.30910000e-02	-5.51473000e-03	1.99980000e-03
3.52853000e-02	1.58286000e-02	2.76931000e-03
3.16221000e-02	8.17123000e-03	1.22346000e-02
6.57172000e-03	-2.87526000e-02	1.81003000e-02
3.58556000e-02	-8.81096000e-03	1.81006000e-02
1.20766000e-02	-3.60359000e-02	1.81002000e-02
3.14889000e-02	1.88277000e-02	1.54429000e-02
3.13510000e-02	1.86152000e-03	1.81011000e-02
3.45182000e-02	-2.01182000e-02	1.22803000e-02
2.51984000e-02	-8.43395000e-03	3.74135000e-03
3.46090000e-02	1.64848000e-02	1.45629000e-02
6.83294000e-03	-3.93722000e-02	9.98461000e-03
8.60531000e-03	-2.61201000e-02	6.12129000e-03
3.57794000e-02	-2.38189000e-03	1.99967000e-03
7.39318000e-03	-2.74177000e-02	1.26829000e-02
2.48972000e-02	1.05462000e-02	9.81109000e-03
2.10735000e-02	8.12228000e-03	2.02093000e-03
3.42425000e-02	-1.31149000e-02	1.77650000e-02
-1.76554000e-03	-3.99526000e-02	1.99983000e-03
1.70465000e-02	-1.38802000e-02	1.99997000e-03
2.30742000e-02	-1.13396000e-02	1.99911000e-03
1.50870000e-02	-3.26675000e-02	8.55961000e-03
-4.88708000e-03	-2.77546000e-02	1.26369000e-02
3.56352000e-02	-6.98678000e-03	1.34124000e-02
-6.61445000e-03	-3.60317000e-02	1.00629000e-02
9.85351000e-03	-2.55522000e-02	1.52483000e-02
3.25924000e-02	-6.66456000e-03	1.05665000e-02
3.99698000e-02	8.56740000e-04	1.99989000e-03
3.46701000e-02	-8.86142000e-04	5.53938000e-03
2.44038000e-02	-1.62992000e-02	1.81002000e-02
2.30642000e-02	-3.25877000e-02	1.08103000e-02
3.14421000e-02	-1.03996000e-02	1.14156000e-02
3.49105000e-02	1.54658000e-02	6.73684000e-03
-1.39073000e-02	-3.73886000e-02	1.03899000e-02
3.19464000e-02	4.30322000e-03	1.12695000e-02
1.81373000e-02	-1.00384000e-02	2.22017000e-03
-7.75254000e-03	-3.17313000e-02	1.07523000e-02
3.99364000e-02	7.51850000e-04	1.44228000e-02
2.26467000e-02	-3.29440000e-02	2.50280000e-03
1.85370000e-02	-5.46746000e-03	1.80246000e-02
1.70401000e-02	-2.38093000e-02	1.66700000e-02
1.44765000e-02	-6.84024000e-04	1.08071000e-02
1.86253000e-02	-5.95682000e-03	1.33836000e-02
2.86363000e-03	-2.19553000e-02	1.07829000e-02
4.86103000e-03	-2.54711000e-02	1.02352000e-02
2.41119000e-02	6.34103000e-03	1.72879000e-02
7.21254000e-03	-2.81131000e-02	2.77832000e-03
1.00927000e-02	-2.09603000e-02	8.65789000e-03
-1.80213000e-02	-3.56429000e-02	1.09386000e-02
8.43021000e-03	-2.43838000e-02	2.00075000e-03
9.50534000e-03	-3.54142000e-02	1.15096000e-02
-2.39272000e-03	-3.43287000e-02	1.54486000e-02
1.06663000e-02	-3.85021000e-02	9.24499000e-03
1.75021000e-02	-1.78163000e-03	1.36946000e-02
2.37347000e-02	-2.74326000e-02	1.44600000e-02
1.73076000e-02	-2.74476000e-02	1.50300000e-02
2.54828000e-02	-2.58579000e-02	1.81008000e-02
2.37583000e-02	-1.83031000e-02	1.04618000e-02
1.93941000e-02	-1.11519000e-02	1.80973000e-02
-6.87293000e-04	-3.73483000e-02	9.34602000e-03
3.19819000e-02	-1.21490000e-02	4.72088000e-03
2.59546000e-02	1.65242000e-02	9.98046000e-03
1.91634000e-02	-3.51012000e-02	3.22545000e-03
3.19137000e-02	-2.09732000e-03	1.81004000e-02
1.81738000e-02	-3.24240000e-02	6.02756000e-03
3.27426000e-02	-2.28844000e-02	9.99209000e-03
7.55542000e-04	-1.82699000e-02	2.94233000e-03
3.60580000e-02	-1.17466000e-02	1.99965000e-03
2.96655000e-02	1.07541000e-02	1.81005000e-02
-3.01652000e-03	-2.32485000e-02	8.95122000e-03
3.94370000e-02	5.92149000e-03	5.98131000e-03
-1.27241000e-03	-2.74676000e-02	1.80827000e-02
5.08015000e-03	-2.78012000e-02	6.98364000e-03
2.75169000e-02	2.94843000e-03	1.09236000e-02
3.22033000e-02	-2.37014000e-02	1.81006000e-02
5.34627000e-03	-3.96339000e-02	1.80948000e-02
1.15603000e-02	-7.41814000e-03	8.64641000e-03
2.57583000e-02	-1.72157000e-02	6.82660000e-03
2.30061000e-02	-1.94315000e-02	2.00041000e-03
1.98662000e-02	-2.06998000e-02	1.81010000e-02
2.41303000e-02	-2.32605000e-02	2.27102000e-03
1.96273000e-02	1.46837000e-02	2.27389000e-03
3.70112000e-02	3.47079000e-03	1.46403000e-02
1.83214000e-03	-3.99253000e-02	1.10791000e-02
2.91611000e-02	-2.20679000e-02	6.49399000e-03
1.50774000e-02	-3.02017000e-02	4.19523000e-03
5.88800000e-03	-9.26124000e-03	5.21336000e-03
2.72935000e-02	3.77009000e-03	2.06726000e-03
3.55272000e-02	-1.12691000e-02	6.47893000e-03
-9.01020000e-03	-2.33842000e-02	2.10198000e-03
2.93791000e-02	-6.38443000e-03	6.71323000e-03
3.87593000e-02	-9.61473000e-03	8.38371000e-03
-1.13466000e-03	-3.99616000e-02	5.97771000e-03
1.59771000e-02	-3.26299000e-02	1.24591000e-02
2.37170000e-02	-9.90864000e-03	1.80864000e-02
2.49832000e-02	-8.00975000e-03	7.71179000e-03
1.29361000e-02	-2.94510000e-02	7.48893000e-03
1.49396000e-02	-2.90819000e-02	1.09319000e-02
-9.01801000e-03	-3.58974000e-02	1.64160000e-02
3.43283000e-02	-2.05034000e-02	1.69799000e-02
1.69971000e-02	-2.87039000e-02	7.36745000e-03
6.59707000e-03	-1.49225000e-02	3.12230000e-03
1.34026000e-02	-2.26664000e-02	6.55420000e-03
1.24701000e-02	-2.62750000e-02	5.10307000e-03
1.56933000e-02	-3.34886000e-02	2.00289000e-03
2.53758000e-02	-9.00687000e-04	5.41237000e-03
9.22102000e-03	-3.60942000e-02	1.99988000e-03
1.77405000e-02	2.43461000e-03	1.78143000e-02
1.06395000e-02	-1.24276000e-02	1.46032000e-02
2.76906000e-03	-3.34888000e-02	1.99913000e-03
2.63344000e-02	-1.99797000e-02	1.44343000e-02
1.89377000e-02	-2.72982000e-02	1.99908000e-03
-1.66407000e-02	-3.20512000e-02	1.51312000e-02
1.01613000e-02	-3.86210000e-02	4.95449000e-03
2.89011000e-02	-5.00579000e-03	1.04365000e-02
3.98200000e-02	2.39136000e-03	7.88989000e-03
2.66072000e-02	1.01701000e-02	2.00065000e-03
1.96473000e-02	-1.34477000e-02	1.48315000e-02
2.78699000e-02	1.83915000e-02	1.70893000e-02
3.05418000e-02	-2.57723000e-02	5.89078000e-03
3.64619000e-02	-1.64240000e-02	1.81011000e-02
2.26485000e-02	1.25758000e-02	7.19939000e-03
3.71644000e-02	1.21863000e-02	6.33304000e-03
3.18431000e-02	3.98211000e-03	7.28419000e-03
-3.05337000e-03	-3.50084000e-02	1.15644000e-02
3.59265000e-03	-2.34716000e-02	2.05509000e-03
-4.43656000e-05	-3.06049000e-02	2.00737000e-03
3.72799000e-02	-1.44304000e-02	4.70182000e-03
1.85766000e-02	-1.46871000e-03	1.80597000e-02
3.65038000e-02	-1.12897000e-03	1.36026000e-02
1.75443000e-02	-1.14494000e-02	8.79919000e-03
2.77274000e-02	-2.86883000e-02	1.34567000e-02
3.25370000e-02	-5.03428000e-03	3.89777000e-03
3.33286000e-02	1.24261000e-02	1.99970000e-03
1.41754000e-02	-2.14596000e-02	1.11902000e-02
3.40865000e-03	-2.78581000e-02	1.51517000e-02
2.37216000e-02	-2.35100000e-02	1.53826000e-02
2.28750000e-02	1.18718000e-02	2.85842000e-03
2.16237000e-02	8.94179000e-03	1.22936000e-02
-1.71438000e-02	-3.58653000e-02	2.15337000e-03
2.90501000e-02	6.17424000e-03	9.12439000e-03
2.55661000e-02	1.66626000e-02	2.07242000e-03
2.54224000e-03	-3.99086000e-02	2.02126000e-03
3.13373000e-02	1.65965000e-02	2.00001000e-03
1.94196000e-02	-1.49818000e-02	8.73356000e-03
1.33249000e-02	-3.04290000e-02	1.47252000e-02
2.12400000e-02	3.00319000e-03	7.07132000e-03
1.69724000e-02	-2.23442000e-02	8.33565000e-03
3.85135000e-02	1.02908000e-02	1.21523000e-02
9.93738000e-03	-8.36027000e-03	1.46354000e-02
2.80882000e-03	-3.06093000e-02	8.70171000e-03
3.31821000e-03	-3.48255000e-02	1.42848000e-02
3.88338000e-02	9.36604000e-03	4.04026000e-03
2.10825000e-02	-7.23777000e-03	5.38766000e-03
3.26330000e-02	-2.30950000e-02	1.41711000e-02
2.41043000e-02	7.51396000e-04	1.99944000e-03
3.55649000e-02	-6.97186000e-03	7.31044000e-03
3.74479000e-02	1.25147000e-02	1.99986000e-03
2.80766000e-02	-2.54084000e-02	9.22149000e-03
-5.39325000e-03	-3.57456000e-02	1.81000000e-02
2.00259000e-02	-1.65487000e-02	1.99981000e-03
2.87903000e-02	-7.49495000e-04	1.28692000e-02
9.29676000e-04	-2.81752000e-02	5.33446000e-03
2.61192000e-02	1.05831000e-02	5.97884000e-03
-1.68078000e-03	-3.72338000e-02	1.81014000e-02
4.90115000e-03	-3.96562000e-02	6.42852000e-03
3.66193000e-02	1.31991000e-02	1.01645000e-02
1.90016000e-02	-3.07961000e-02	1.01240000e-02
5.75411000e-03	-1.70495000e-02	1.34196000e-02
3.30560000e-02	3.86326000e-03	1.50870000e-02
2.60393000e-02	6.56706000e-03	6.52060000e-03
3.52604000e-02	6.37504000e-03	1.21304000e-02
3.98450000e-02	-3.38720000e-03	2.04421000e-03
3.14892000e-02	-1.75680000e-02	1.81005000e-02
3.91789000e-02	6.25879000e-03	1.80923000e-02
2.12839000e-02	-1.82264000e-02	7.32070000e-03
-7.11257000e-03	-3.48564000e-02	4.56060000e-03
2.57299000e-02	-2.07367000e-02	4.92935000e-03
2.59403000e-02	2.87755000e-03	1.80998000e-02
-8.74223000e-03	-3.90212000e-02	1.39289000e-02
2.65967000e-02	-1.38405000e-02	1.17627000e-02
3.92563000e-02	7.15778000e-03	9.78012000e-03
2.90980000e-02	1.12504000e-02	1.27454000e-02
3.97004000e-02	-4.60676000e-03	1.44931000e-02
2.26601000e-02	-2.32100000e-03	1.76532000e-02
3.95954000e-02	5.59136000e-03	1.99917000e-03
6.62924000e-03	-3.66494000e-02	1.55906000e-02
2.28187000e-02	-1.80749000e-02	1.43424000e-02
-1.74330000e-03	-3.99256000e-02	1.51452000e-02
-1.66615000e-02	-3.63436000e-02	1.60698000e-02
2.26356000e-02	-1.08807000e-02	5.94798000e-03
8.34505000e-05	-3.00449000e-02	1.47731000e-02
2.90860000e-02	-1.67452000e-02	1.05943000e-02
9.32579000e-03	-2.87946000e-02	9.08835000e-03
1.80911000e-02	-2.05337000e-03	9.17156000e-03
1.45716000e-02	-3.29103000e-02	1.80934000e-02
4.56791000e-03	-3.31246000e-03	1.15735000e-02
9.14850000e-03	-3.76303000e-03	1.05305000e-02
1.30464000e-03	-3.99712000e-02	1.80573000e-02
3.62788000e-02	-1.65958000e-02	1.15843000e-02
1.30608000e-02	-3.44165000e-02	1.45686000e-02
9.99247000e-03	-1.13167000e-02	6.37434000e-03
-5.31834000e-03	-3.16102000e-02	1.39345000e-02
-5.85180000e-03	-2.98256000e-02	7.65877000e-03
3.19168000e-02	-7.94676000e-03	1.45391000e-02
-8.20451000e-04	-2.96298000e-02	1.08923000e-02
2.49711000e-02	-3.12152000e-02	1.48737000e-02
1.49237000e-02	-2.68627000e-02	1.99957000e-03
2.06189000e-02	-3.00655000e-02	1.37085000e-02
2.04393000e-02	-2.52425000e-02	1.38763000e-02
3.38919000e-02	-3.78291000e-03	1.50609000e-02
2.75972000e-02	-1.14770000e-02	2.11214000e-03
[...]
POINT_DATA 469
SCALARS Radius double 1
LOOKUP_TABLE default
2.00000000e-03
2.00000000e-03
2.00000000e-03
2.00000000e-03
2.00000000e-03
2.00000000e-03
2.00000000e-03
2.00000000e-03
2.00000000e-03
2.00000000e-03
2.00000000e-03
2.00000000e-03
2.00000000e-03
2.00000000e-03
2.00000000e-03
2.00000000e-03
2.00000000e-03
2.00000000e-03
2.00000000e-03
2.00000000e-03
2.00000000e-03
2.00000000e-03
2.00000000e-03
2.00000000e-03
2.00000000e-03
2.00000000e-03
2.00000000e-03
2.00000000e-03
2.00000000e-03
2.00000000e-03
2.00000000e-03
2.00000000e-03
2.00000000e-03
2.00000000e-03
2.00000000e-03
2.00000000e-03
2.00000000e-03
2.00000000e-03
2.00000000e-03
2.00000000e-03
2.00000000e-03
2.00000000e-03
2.00000000e-03
2.00000000e-03
2.00000000e-03
2.00000000e-03
2.00000000e-03
2.00000000e-03
2.00000000e-03
2.00000000e-03
2.00000000e-03
2.00000000e-03
2.00000000e-03
2.00000000e-03
2.00000000e-03
2.00000000e-03
2.00000000e-03
2.00000000e-03
2.00000000e-03
2.00000000e-03
2.00000000e-03
2.00000000e-03
2.00000000e-03
2.00000000e-03
2.00000000e-03
2.00000000e-03
2.00000000e-03
2.00000000e-03
2.00000000e-03
2.00000000e-03
2.00000000e-03
2.00000000e-03
2.00000000e-03
2.00000000e-03
2.00000000e-03
2.00000000e-03
2.00000000e-03
2.00000000e-03
2.00000000e-03
2.00000000e-03
2.00000000e-03
2.00000000e-03
2.00000000e-03
2.00000000e-03
2.00000000e-03
2.00000000e-03
2.00000000e-03
2.00000000e-03
2.00000000e-03
2.00000000e-03
2.00000000e-03
2.00000000e-03
2.00000000e-03
2.00000000e-03
2.00000000e-03
2.00000000e-03
2.00000000e-03
2.00000000e-03
2.00000000e-03
2.00000000e-03
2.00000000e-03
2.00000000e-03
2.00000000e-03
2.00000000e-03
2.00000000e-03
2.00000000e-03
2.00000000e-03
2.00000000e-03
2.00000000e-03
2.00000000e-03
2.00000000e-03
2.00000000e-03
2.00000000e-03
2.00000000e-03
2.00000000e-03
2.00000000e-03
2.00000000e-03
2.00000000e-03
2.00000000e-03
2.00000000e-03
2.00000000e-03
2.00000000e-03
2.00000000e-03
2.00000000e-03
2.00000000e-03
2.00000000e-03
2.00000000e-03
2.00000000e-03
2.00000000e-03
2.00000000e-03
2.00000000e-03
2.00000000e-03
2.00000000e-03
2.00000000e-03
2.00000000e-03
2.00000000e-03
2.00000000e-03
2.00000000e-03
2.00000000e-03
2.00000000e-03
2.00000000e-03
2.00000000e-03
2.00000000e-03
2.00000000e-03
2.00000000e-03
2.00000000e-03
2.00000000e-03
2.00000000e-03
2.00000000e-03
2.00000000e-03
2.00000000e-03
2.00000000e-03
2.00000000e-03
2.00000000e-03
2.00000000e-03
2.00000000e-03
2.00000000e-03
2.00000000e-03
2.00000000e-03
2.00000000e-03
2.00000000e-03
2.00000000e-03
2.00000000e-03
2.00000000e-03
2.00000000e-03
2.00000000e-03
2.00000000e-03
2.00000000e-03
2.00000000e-03
2.00000000e-03
2.00000000e-03
2.00000000e-03
2.00000000e-03
2.00000000e-03
2.00000000e-03
2.00000000e-03
2.00000000e-03
2.00000000e-03
2.00000000e-03
2.00000000e-03
2.00000000e-03
2.00000000e-03
2.00000000e-03
2.00000000e-03
2.00000000e-03
2.00000000e-03
2.00000000e-03
2.00000000e-03
2.00000000e-03
2.00000000e-03
2.00000000e-03
2.00000000e-03
2.00000000e-03
2.00000000e-03
2.00000000e-03
2.00000000e-03
2.00000000e-03
2.00000000e-03
2.00000000e-03
2.00000000e-03
2.00000000e-03
2.00000000e-03
2.00000000e-03
2.00000000e-03
2.00000000e-03
2.00000000e-03
2.00000000e-03
2.00000000e-03
2.00000000e-03
2.00000000e-03
2.00000000e-03
2.00000000e-03
2.00000000e-03
2.00000000e-03
2.00000000e-03
2.00000000e-03
2.00000000e-03
2.00000000e-03
2.00000000e-03
2.00000000e-03
2.00000000e-03
2.00000000e-03
2.00000000e-03
2.00000000e-03
2.00000000e-03
2.00000000e-03
2.00000000e-03
2.00000000e-03
2.00000000e-03
2.00000000e-03
2.00000000e-03
2.00000000e-03
2.00000000e-03
2.00000000e-03
2.00000000e-03
2.00000000e-03
2.00000000e-03
2.00000000e-03
2.00000000e-03
2.00000000e-03
2.00000000e-03
2.00000000e-03
2.00000000e-03
2.00000000e-03
2.00000000e-03
2.00000000e-03
2.00000000e-03
2.00000000e-03
2.00000000e-03
2.00000000e-03
2.00000000e-03
2.00000000e-03
2.00000000e-03
2.00000000e-03
2.00000000e-03
2.00000000e-03
2.00000000e-03
2.00000000e-03
2.00000000e-03
2.00000000e-03
2.00000000e-03
2.00000000e-03
2.00000000e-03
2.00000000e-03
2.00000000e-03
2.00000000e-03
2.00000000e-03
2.00000000e-03
2.00000000e-03
2.00000000e-03
2.00000000e-03
2.00000000e-03
2.00000000e-03
2.00000000e-03
2.00000000e-03
2.00000000e-03
2.00000000e-03
2.00000000e-03
2.00000000e-03
2.00000000e-03
2.00000000e-03
2.00000000e-03
2.00000000e-03
2.00000000e-03
2.00000000e-03
2.00000000e-03
2.00000000e-03
2.00000000e-03
2.00000000e-03
2.00000000e-03
2.00000000e-03
2.00000000e-03
2.00000000e-03
2.00000000e-03
2.00000000e-03
2.00000000e-03
2.00000000e-03
2.00000000e-03
2.00000000e-03
2.00000000e-03
2.00000000e-03
2.00000000e-03
2.00000000e-03
2.00000000e-03
2.00000000e-03
2.00000000e-03
2.00000000e-03
2.00000000e-03
2.00000000e-03
2.00000000e-03
2.00000000e-03
2.00000000e-03
2.00000000e-03
2.00000000e-03
2.00000000e-03
2.00000000e-03
2.00000000e-03
2.00000000e-03
2.00000000e-03
2.00000000e-03
2.00000000e-03
2.00000000e-03
2.00000000e-03
2.00000000e-03
2.00000000e-03
2.00000000e-03
2.00000000e-03
2.00000000e-03
2.00000000e-03
2.00000000e-03
2.00000000e-03
2.00000000e-03
2.00000000e-03
2.00000000e-03
2.00000000e-03
2.00000000e-03
2.00000000e-03
2.00000000e-03
2.00000000e-03
2.00000000e-03
2.00000000e-03
2.00000000e-03
2.00000000e-03
2.00000000e-03
2.00000000e-03
2.00000000e-03
2.00000000e-03
2.00000000e-03
2.00000000e-03
2.00000000e-03
2.00000000e-03
2.00000000e-03
2.00000000e-03
2.00000000e-03
2.00000000e-03
2.00000000e-03
2.00000000e-03
2.00000000e-03
2.00000000e-03
2.00000000e-03
2.00000000e-03
2.00000000e-03
2.00000000e-03
2.00000000e-03
2.00000000e-03
2.00000000e-03
2.00000000e-03
2.00000000e-03
2.00000000e-03
2.00000000e-03
2.00000000e-03
2.00000000e-03
2.00000000e-03
2.00000000e-03
2.00000000e-03
2.00000000e-03
2.00000000e-03
2.00000000e-03
2.00000000e-03
2.00000000e-03
2.00000000e-03
2.00000000e-03
2.00000000e-03
2.00000000e-03
2.00000000e-03
2.00000000e-03
2.00000000e-03
2.00000000e-03
2.00000000e-03
2.00000000e-03
2.00000000e-03
2.00000000e-03
2.00000000e-03
2.00000000e-03
2.00000000e-03
2.00000000e-03
2.00000000e-03
2.00000000e-03
2.00000000e-03
2.00000000e-03
2.00000000e-03
2.00000000e-03
2.00000000e-03
2.00000000e-03
2.00000000e-03
2.00000000e-03
2.00000000e-03
2.00000000e-03
2.00000000e-03
2.00000000e-03
2.00000000e-03
2.00000000e-03
2.00000000e-03
2.00000000e-03
2.00000000e-03
2.00000000e-03
2.00000000e-03
2.00000000e-03
2.00000000e-03
2.00000000e-03
2.00000000e-03
2.00000000e-03
2.00000000e-03
2.00000000e-03
2.00000000e-03
2.00000000e-03
2.00000000e-03
2.00000000e-03
2.00000000e-03
2.00000000e-03
2.00000000e-03
2.00000000e-03
2.00000000e-03
2.00000000e-03
2.00000000e-03
2.00000000e-03
2.00000000e-03
2.00000000e-03
2.00000000e-03
2.00000000e-03
2.00000000e-03
2.00000000e-03
2.00000000e-03
2.00000000e-03
2.00000000e-03
2.00000000e-03
2.00000000e-03
2.00000000e-03
2.00000000e-03
2.00000000e-03
2.00000000e-03
2.00000000e-03
2.00000000e-03
2.00000000e-03
2.00000000e-03
2.00000000e-03
2.00000000e-03
2.00000000e-03
2.00000000e-03
2.00000000e-03
2.00000000e-03
2.00000000e-03
2.00000000e-03
2.00000000e-03
2.00000000e-03
2.00000000e-03
2.00000000e-03
2.00000000e-03
2.00000000e-03
