# vtk DataFile Version 2.0
Particle data
ASCII
DATASET POLYDATA
POINTS 469 double
1.39325000e-02	6.85333000e-03	8.12328000e-03
2.37674000e-02	9.80454000e-03	1.45078000e-02
2.79406000e-02	3.30437000e-03	5.93084000e-03
1.84175000e-02	-2.84343000e-02	1.04508000e-02
2.01428000e-02	-2.25328000e-03	2.03410000e-03
1.32673000e-02	8.07750000e-03	2.80472000e-03
1.64015000e-02	7.88083000e-03	1.51378000e-02
1.99726000e-02	-2.26899000e-02	1.81002000e-02
3.49633000e-02	1.00336000e-02	1.80916000e-02
2.94891000e-02	-2.41245000e-02	1.81009000e-02
-5.61312000e-04	-2.64335000e-02	3.42488000e-03
2.22200000e-02	1.09094000e-02	1.80910000e-02
3.99452000e-02	5.33526000e-04	1.22519000e-02
2.45250000e-02	2.91578000e-03	3.89035000e-03
6.74383000e-03	-1.87132000e-02	1.32780000e-02
2.67390000e-02	-2.96840000e-02	1.01829000e-02
2.05623000e-02	-1.82048000e-02	5.81879000e-03
3.15379000e-02	1.49268000e-02	2.00299000e-03
1.93896000e-02	-2.12073000e-02	1.36544000e-02
-5.90289000e-03	-3.00376000e-02	6.80760000e-03
-2.50383000e-03	-3.04451000e-02	2.00011000e-03
3.58095000e-02	6.12087000e-03	1.77307000e-02
1.96344000e-02	-3.48330000e-02	2.01809000e-03
2.05680000e-02	-6.22664000e-03	1.99991000e-03
2.37722000e-02	-5.69722000e-04	2.08167000e-03
2.96804000e-02	-2.04057000e-02	8.53715000e-03
-6.08289000e-04	-3.99760000e-02	1.53467000e-02
3.37867000e-02	1.13985000e-02	1.24213000e-02
1.27135000e-02	-3.43151000e-02	1.11993000e-02
2.09869000e-02	-1.80151000e-02	1.54589000e-02
3.02203000e-02	9.93861000e-03	9.82745000e-03
3.34233000e-02	1.87905000e-02	2.00188000e-03
2.85555000e-02	1.56742000e-02	4.88823000e-03
2.88774000e-02	-1.23129000e-03	1.81000000e-02
3.68202000e-02	-1.54440000e-02	1.08410000e-02
3.18475000e-02	6.44124000e-03	1.09360000e-02
9.40706000e-03	5.76319000e-03	6.88842000e-03
7.42162000e-03	-3.91927000e-02	9.53370000e-03
2.14394000e-02	8.36210000e-03	1.15818000e-02
1.48485000e-02	-6.61159000e-03	2.64272000e-03
8.96105000e-03	-3.57469000e-02	1.08561000e-02
3.39360000e-02	1.87299000e-02	1.41839000e-02
3.66907000e-02	-1.58782000e-02	2.48347000e-03
8.85580000e-03	-1.78910000e-02	1.80897000e-02
2.68518000e-02	-1.17633000e-02	1.62435000e-02
-3.34542000e-03	-3.25651000e-02	8.87216000e-03
1.49805000e-02	-1.70857000e-02	1.12740000e-02
1.14165000e-03	-3.66013000e-02	1.41043000e-02
1.44242000e-02	-2.43321000e-02	1.08964000e-02
-7.42452000e-03	-3.11536000e-02	1.79235000e-02
2.05607000e-02	-2.08078000e-02	2.78159000e-03
1.45070000e-02	-2.06086000e-02	9.44009000e-03
3.41422000e-03	-3.97790000e-02	1.13499000e-02
1.79407000e-02	-1.78882000e-02	1.99996000e-03
2.63858000e-02	-2.53179000e-02	1.14940000e-02
1.64471000e-02	-3.05780000e-02	1.52582000e-02
2.94553000e-02	-2.69759000e-02	9.04908000e-03
-5.43555000e-04	-3.17811000e-02	1.71589000e-02
3.46191000e-02	-1.06420000e-02	1.44277000e-02
2.92352000e-02	-1.46321000e-02	1.47986000e-02
3.55536000e-02	-8.36600000e-03	1.80072000e-02
2.89632000e-02	-5.11548000e-03	1.08793000e-02
1.37732000e-02	-1.76293000e-02	1.80060000e-02
1.93032000e-02	-3.20510000e-02	8.99059000e-03
3.26258000e-02	4.04744000e-03	4.67606000e-03
-6.75681000e-06	-3.01306000e-02	7.42016000e-03
3.48033000e-02	-1.97009000e-02	3.24018000e-03
2.61842000e-02	1.02577000e-02	1.80459000e-02
3.22212000e-02	-1.85393000e-02	6.06659000e-03
3.98754000e-02	-2.74006000e-03	9.85557000e-03
9.29444000e-03	-3.22540000e-02	6.42361000e-03
3.65317000e-02	5.99056000e-03	2.00124000e-03
-1.29693000e-02	-3.42952000e-02	1.54054000e-02
-1.39091000e-02	-3.73870000e-02	1.27297000e-02
2.83956000e-02	1.95166000e-02	6.04726000e-03
7.93342000e-03	-3.36618000e-02	1.81004000e-02
1.82256000e-02	-2.11850000e-02	7.10443000e-03
1.31346000e-02	2.60862000e-03	1.30309000e-02
3.97543000e-02	-4.26773000e-03	1.81009000e-02
2.56001000e-02	-3.07238000e-02	1.81010000e-02
1.31298000e-03	-3.25268000e-02	1.03649000e-02
2.96233000e-02	-2.94081000e-03	7.58902000e-03
2.89803000e-02	-5.81518000e-03	2.00487000e-03
2.76759000e-02	-7.68133000e-03	1.81004000e-02
3.27069000e-02	-1.00075000e-02	2.14358000e-03
-9.63840000e-03	-3.57468000e-02	2.00319000e-03
2.73882000e-02	1.54351000e-02	1.42619000e-02
2.27548000e-02	-3.28613000e-02	1.09913000e-02
3.64475000e-02	-4.03597000e-03	6.74159000e-03
2.84499000e-02	-1.78491000e-02	4.22982000e-03
-4.60368000e-03	-3.97059000e-02	1.04174000e-02
1.00345000e-02	-1.22669000e-02	7.43674000e-03
3.59400000e-02	6.56165000e-03	6.14665000e-03
-1.59151000e-03	-3.99539000e-02	2.30677000e-03
2.53250000e-02	5.73968000e-03	7.73450000e-03
3.81235000e-02	1.08802000e-02	7.81043000e-03
2.03355000e-02	-3.44142000e-02	5.93366000e-03
3.08279000e-02	-1.94746000e-02	1.22580000e-02
2.46145000e-02	-8.24619000e-04	1.81002000e-02
2.26728000e-02	2.37720000e-03	9.20711000e-03
2.60442000e-02	-1.85510000e-02	7.34707000e-03
2.76057000e-02	-1.75318000e-02	1.09018000e-02
1.06843000e-02	-3.53763000e-02	1.57578000e-02
3.99812000e-02	-3.02515000e-04	1.76240000e-02
2.90897000e-02	-1.57370000e-02	7.56472000e-03
-9.47026000e-03	-3.88306000e-02	8.84404000e-03
2.16416000e-02	-1.36095000e-02	6.84166000e-03
2.39160000e-02	-1.62431000e-02	4.86991000e-03
3.10022000e-02	-1.99932000e-02	2.02079000e-03
1.67883000e-02	-4.96810000e-03	7.42028000e-03
2.65497000e-02	-2.62875000e-02	1.99998000e-03
-3.69000000e-03	-3.40948000e-02	1.80905000e-02
4.93444000e-03	-3.11969000e-02	1.71378000e-02
2.01340000e-02	-2.70396000e-02	1.99862000e-03
3.23930000e-02	-3.83619000e-03	1.43202000e-02
3.02209000e-02	-1.33049000e-02	1.99977000e-03
-5.81669000e-03	-3.95660000e-02	1.56464000e-02
2.88738000e-02	-2.75675000e-02	4.99336000e-03
2.40111000e-02	5.27216000e-03	1.17124000e-02
3.22763000e-02	1.85282000e-02	8.25331000e-03
3.58852000e-03	-2.28110000e-02	2.00070000e-03
2.24506000e-02	-1.45332000e-02	1.41416000e-02
-2.02201000e-02	-3.43339000e-02	1.21432000e-02
3.89172000e-02	-9.17940000e-03	5.72522000e-03
3.96594000e-02	5.09332000e-03	1.81008000e-02
-9.30257000e-03	-3.87961000e-02	1.34343000e-02
2.36978000e-02	1.96962000e-02	7.48313000e-03
2.09615000e-02	1.21840000e-02	1.04288000e-02
1.59883000e-02	-3.18934000e-02	1.12230000e-02
6.58066000e-03	-3.13434000e-02	2.14442000e-03
1.62425000e-02	-2.79772000e-02	1.99947000e-03
3.95530000e-02	5.64029000e-03	4.69859000e-03
4.78974000e-03	-2.34560000e-02	1.80734000e-02
3.15532000e-02	1.58684000e-02	1.24153000e-02
1.59450000e-02	-1.48147000e-02	4.36687000e-03
3.85745000e-02	-1.02019000e-02	1.28468000e-02
2.86133000e-02	8.92482000e-03	4.51083000e-03
1.16537000e-02	4.49405000e-03	2.00107000e-03
2.16311000e-02	-1.59561000e-02	1.04168000e-02
1.70163000e-02	-2.39807000e-02	1.57354000e-02
3.22336000e-02	-7.63679000e-03	1.55532000e-02
-1.01888000e-02	-3.30563000e-02	7.47689000e-03
9.91338000e-03	-2.35532000e-02	1.33441000e-02
3.13096000e-03	-3.98348000e-02	2.43633000e-03
1.24534000e-02	-5.13456000e-03	7.74132000e-03
-6.19623000e-03	-2.85093000e-02	3.07832000e-03
2.30183000e-02	-3.27003000e-02	2.00447000e-03
1.57081000e-02	3.14744000e-03	2.24933000e-03
2.14031000e-02	-8.63925000e-03	9.67808000e-03
2.73975000e-02	-1.88013000e-02	1.47722000e-02
1.05527000e-02	-1.97223000e-02	1.45250000e-02
2.59289000e-02	-1.09388000e-02	8.87387000e-03
2.28320000e-02	2.04388000e-02	1.16533000e-02
-1.54686000e-03	-3.39117000e-02	1.27943000e-02
1.81244000e-02	-2.48531000e-02	8.69443000e-03
2.13820000e-02	-2.79552000e-02	1.41865000e-02
2.47324000e-02	1.93603000e-02	3.39262000e-03
2.03140000e-02	-6.60325000e-03	6.16218000e-03
3.98425000e-02	-2.86543000e-03	1.43568000e-02
1.94848000e-02	1.68528000e-03	2.11077000e-03
3.42281000e-02	1.03028000e-02	6.89001000e-03
1.86588000e-02	1.50757000e-02	2.00598000e-03
3.74184000e-02	-7.90671000e-03	9.20833000e-03
1.36096000e-02	-3.39784000e-02	1.81004000e-02
2.44692000e-02	-4.50646000e-03	2.00084000e-03
1.90738000e-02	1.27790000e-03	1.32816000e-02
1.60118000e-02	-2.62630000e-02	5.60545000e-03
-4.03701000e-03	-2.47847000e-02	2.06515000e-03
1.84324000e-02	-3.25835000e-02	1.81002000e-02
2.36363000e-02	-3.21545000e-02	5.91967000e-03
1.84247000e-02	1.52165000e-02	1.17213000e-02
3.21392000e-02	-1.63970000e-02	1.00670000e-02
2.97846000e-03	-3.45520000e-02	1.80941000e-02
1.94705000e-02	1.08017000e-02	1.45294000e-02
-1.94243000e-03	-2.72711000e-02	9.43639000e-03
2.32911000e-02	1.54774000e-02	1.22263000e-02
3.63946000e-02	1.54037000e-02	2.02910000e-03
3.61119000e-02	1.54243000e-03	1.81014000e-02
2.74296000e-02	1.78531000e-02	1.79641000e-02
2.56345000e-02	-6.09721000e-03	7.89177000e-03
1.23469000e-02	-3.44706000e-02	5.09307000e-03
3.18184000e-02	-5.64002000e-03	5.27982000e-03
-4.43791000e-03	-3.02828000e-02	1.24534000e-02
1.32688000e-02	-3.77271000e-02	1.38111000e-02
2.96038000e-02	-1.27982000e-03	1.18142000e-02
2.70621000e-02	2.18934000e-02	1.03451000e-02
8.31164000e-03	-2.11988000e-02	2.16394000e-03
3.64692000e-02	1.55598000e-02	1.45142000e-02
7.67336000e-03	-1.40594000e-02	1.80902000e-02
3.04046000e-02	2.19446000e-02	2.52280000e-03
2.50836000e-02	-2.75996000e-02	1.56584000e-02
2.79455000e-02	-4.33110000e-03	1.46668000e-02
1.97458000e-02	-3.47472000e-02	1.50033000e-02
3.44008000e-03	-3.98216000e-02	1.79657000e-02
2.30581000e-02	-5.89404000e-04	6.54895000e-03
1.57980000e-02	-2.70537000e-02	1.34844000e-02
3.35215000e-02	9.97634000e-04	1.10406000e-02
2.28265000e-02	-1.98704000e-02	9.32283000e-03
1.24409000e-02	-2.51399000e-02	7.01399000e-03
2.98282000e-02	-2.01405000e-02	1.80900000e-02
-2.99345000e-03	-3.67672000e-02	1.51971000e-02
2.45396000e-03	-3.28344000e-02	1.43971000e-02
2.24021000e-02	-3.31261000e-02	1.81001000e-02
3.96462000e-02	4.42258000e-03	1.13682000e-02
2.92247000e-02	-2.23507000e-02	1.45269000e-02
4.53769000e-03	-3.21271000e-02	8.02982000e-03
9.68368000e-03	-3.25350000e-02	1.31266000e-02
8.19927000e-03	-3.60625000e-02	5.88128000e-03
3.08095000e-02	8.52242000e-03	1.41898000e-02
1.22774000e-02	-3.01117000e-02	1.12839000e-02
3.75093000e-02	-1.37013000e-02	1.44683000e-02
2.64910000e-02	-1.51674000e-02	2.00086000e-03
3.38531000e-02	-1.49903000e-02	1.34841000e-02
3.06995000e-02	-1.10665000e-02	1.37324000e-02
3.00438000e-02	1.24472000e-02	1.41356000e-02
2.84099000e-02	2.28029000e-03	2.08897000e-03
[...]
POINT_DATA 469
SCALARS Radius double 1
LOOKUP_TABLE default
2.00000000e-03
2.00000000e-03
2.00000000e-03
2.00000000e-03
2.00000000e-03
2.00000000e-03
2.00000000e-03
2.00000000e-03
2.00000000e-03
2.00000000e-03
2.00000000e-03
2.00000000e-03
2.00000000e-03
2.00000000e-03
2.00000000e-03
2.00000000e-03
2.00000000e-03
2.00000000e-03
2.00000000e-03
2.00000000e-03
2.00000000e-03
2.00000000e-03
2.00000000e-03
2.00000000e-03
2.00000000e-03
2.00000000e-03
2.00000000e-03
2.00000000e-03
2.00000000e-03
2.00000000e-03
2.00000000e-03
2.00000000e-03
2.00000000e-03
2.00000000e-03
2.00000000e-03
2.00000000e-03
2.00000000e-03
2.00000000e-03
2.00000000e-03
2.00000000e-03
2.00000000e-03
2.00000000e-03
2.00000000e-03
2.00000000e-03
2.00000000e-03
2.00000000e-03
2.00000000e-03
2.00000000e-03
2.00000000e-03
2.00000000e-03
2.00000000e-03
2.00000000e-03
2.00000000e-03
2.00000000e-03
2.00000000e-03
2.00000000e-03
2.00000000e-03
2.00000000e-03
2.00000000e-03
2.00000000e-03
2.00000000e-03
2.00000000e-03
2.00000000e-03
2.00000000e-03
2.00000000e-03
2.00000000e-03
2.00000000e-03
2.00000000e-03
2.00000000e-03
2.00000000e-03
2.00000000e-03
2.00000000e-03
2.00000000e-03
2.00000000e-03
2.00000000e-03
2.00000000e-03
2.00000000e-03
2.00000000e-03
2.00000000e-03
2.00000000e-03
2.00000000e-03
2.00000000e-03
2.00000000e-03
2.00000000e-03
2.00000000e-03
2.00000000e-03
2.00000000e-03
2.00000000e-03
2.00000000e-03
2.00000000e-03
2.00000000e-03
2.00000000e-03
2.00000000e-03
2.00000000e-03
2.00000000e-03
2.00000000e-03
2.00000000e-03
2.00000000e-03
2.00000000e-03
2.00000000e-03
2.00000000e-03
2.00000000e-03
2.00000000e-03
2.00000000e-03
2.00000000e-03
2.00000000e-03
2.00000000e-03
2.00000000e-03
2.00000000e-03
2.00000000e-03
2.00000000e-03
2.00000000e-03
2.00000000e-03
2.00000000e-03
2.00000000e-03
2.00000000e-03
2.00000000e-03
2.00000000e-03
2.00000000e-03
2.00000000e-03
2.00000000e-03
2.00000000e-03
2.00000000e-03
2.00000000e-03
2.00000000e-03
2.00000000e-03
2.00000000e-03
2.00000000e-03
2.00000000e-03
2.00000000e-03
2.00000000e-03
2.00000000e-03
2.00000000e-03
2.00000000e-03
2.00000000e-03
2.00000000e-03
2.00000000e-03
2.00000000e-03
2.00000000e-03
2.00000000e-03
2.00000000e-03
2.00000000e-03
2.00000000e-03
2.00000000e-03
2.00000000e-03
2.00000000e-03
2.00000000e-03
2.00000000e-03
2.00000000e-03
2.00000000e-03
2.00000000e-03
2.00000000e-03
2.00000000e-03
2.00000000e-03
2.00000000e-03
2.00000000e-03
2.00000000e-03
2.00000000e-03
2.00000000e-03
2.00000000e-03
2.00000000e-03
2.00000000e-03
2.00000000e-03
2.00000000e-03
2.00000000e-03
2.00000000e-03
2.00000000e-03
2.00000000e-03
2.00000000e-03
2.00000000e-03
2.00000000e-03
2.00000000e-03
2.00000000e-03
2.00000000e-03
2.00000000e-03
2.00000000e-03
2.00000000e-03
2.00000000e-03
2.00000000e-03
2.00000000e-03
2.00000000e-03
2.00000000e-03
2.00000000e-03
2.00000000e-03
2.00000000e-03
2.00000000e-03
2.00000000e-03
2.00000000e-03
2.00000000e-03
2.00000000e-03
2.00000000e-03
2.00000000e-03
2.00000000e-03
2.00000000e-03
2.00000000e-03
2.00000000e-03
2.00000000e-03
2.00000000e-03
2.00000000e-03
2.00000000e-03
2.00000000e-03
2.00000000e-03
2.00000000e-03
2.00000000e-03
2.00000000e-03
2.00000000e-03
2.00000000e-03
2.00000000e-03
2.00000000e-03
2.00000000e-03
2.00000000e-03
2.00000000e-03
2.00000000e-03
2.00000000e-03
2.00000000e-03
2.00000000e-03
2.00000000e-03
2.00000000e-03
2.00000000e-03
2.00000000e-03
2.00000000e-03
2.00000000e-03
2.00000000e-03
2.00000000e-03
2.00000000e-03
2.00000000e-03
2.00000000e-03
2.00000000e-03
2.00000000e-03
2.00000000e-03
2.00000000e-03
2.00000000e-03
2.00000000e-03
2.00000000e-03
2.00000000e-03
2.00000000e-03
2.00000000e-03
2.00000000e-03
2.00000000e-03
2.00000000e-03
2.00000000e-03
2.00000000e-03
2.00000000e-03
2.00000000e-03
2.00000000e-03
2.00000000e-03
2.00000000e-03
2.00000000e-03
2.00000000e-03
2.00000000e-03
2.00000000e-03
2.00000000e-03
2.00000000e-03
2.00000000e-03
2.00000000e-03
2.00000000e-03
2.00000000e-03
2.00000000e-03
2.00000000e-03
2.00000000e-03
2.00000000e-03
2.00000000e-03
2.00000000e-03
2.00000000e-03
2.00000000e-03
2.00000000e-03
2.00000000e-03
2.00000000e-03
2.00000000e-03
2.00000000e-03
2.00000000e-03
2.00000000e-03
2.00000000e-03
2.00000000e-03
2.00000000e-03
2.00000000e-03
2.00000000e-03
2.00000000e-03
2.00000000e-03
2.00000000e-03
2.00000000e-03
2.00000000e-03
2.00000000e-03
2.00000000e-03
2.00000000e-03
2.00000000e-03
2.00000000e-03
2.00000000e-03
2.00000000e-03
2.00000000e-03
2.00000000e-03
2.00000000e-03
2.00000000e-03
2.00000000e-03
2.00000000e-03
2.00000000e-03
2.00000000e-03
2.00000000e-03
2.00000000e-03
2.00000000e-03
2.00000000e-03
2.00000000e-03
2.00000000e-03
2.00000000e-03
2.00000000e-03
2.00000000e-03
2.00000000e-03
2.00000000e-03
2.00000000e-03
2.00000000e-03
2.00000000e-03
2.00000000e-03
2.00000000e-03
2.00000000e-03
2.00000000e-03
2.00000000e-03
2.00000000e-03
2.00000000e-03
2.00000000e-03
2.00000000e-03
2.00000000e-03
2.00000000e-03
2.00000000e-03
2.00000000e-03
2.00000000e-03
2.00000000e-03
2.00000000e-03
2.00000000e-03
2.00000000e-03
2.00000000e-03
2.00000000e-03
2.00000000e-03
2.00000000e-03
2.00000000e-03
2.00000000e-03
2.00000000e-03
2.00000000e-03
2.00000000e-03
2.00000000e-03
2.00000000e-03
2.00000000e-03
2.00000000e-03
2.00000000e-03
2.00000000e-03
2.00000000e-03
2.00000000e-03
2.00000000e-03
2.00000000e-03
2.00000000e-03
2.00000000e-03
2.00000000e-03
2.00000000e-03
2.00000000e-03
2.00000000e-03
2.00000000e-03
2.00000000e-03
2.00000000e-03
2.00000000e-03
2.00000000e-03
2.00000000e-03
2.00000000e-03
2.00000000e-03
2.00000000e-03
2.00000000e-03
2.00000000e-03
2.00000000e-03
2.00000000e-03
2.00000000e-03
2.00000000e-03
2.00000000e-03
2.00000000e-03
2.00000000e-03
2.00000000e-03
2.00000000e-03
2.00000000e-03
2.00000000e-03
2.00000000e-03
2.00000000e-03
2.00000000e-03
2.00000000e-03
2.00000000e-03
2.00000000e-03
2.00000000e-03
2.00000000e-03
2.00000000e-03
2.00000000e-03
2.00000000e-03
2.00000000e-03
2.00000000e-03
2.00000000e-03
2.00000000e-03
2.00000000e-03
2.00000000e-03
2.00000000e-03
2.00000000e-03
2.00000000e-03
2.00000000e-03
2.00000000e-03
2.00000000e-03
2.00000000e-03
2.00000000e-03
2.00000000e-03
2.00000000e-03
2.00000000e-03
2.00000000e-03
2.00000000e-03
2.00000000e-03
2.00000000e-03
2.00000000e-03
2.00000000e-03
2.00000000e-03
2.00000000e-03
2.00000000e-03
2.00000000e-03
2.00000000e-03
2.00000000e-03
2.00000000e-03
2.00000000e-03
2.00000000e-03
2.00000000e-03
2.00000000e-03
2.00000000e-03
2.00000000e-03
2.00000000e-03
2.00000000e-03
2.00000000e-03
2.00000000e-03
2.00000000e-03
2.00000000e-03
2.00000000e-03
2.00000000e-03
2.00000000e-03
2.00000000e-03
2.00000000e-03
2.00000000e-03
2.00000000e-03
2.00000000e-03
2.00000000e-03
2.00000000e-03
2.00000000e-03
2.00000000e-03
2.00000000e-03
2.00000000e-03
2.00000000e-03
2.00000000e-03
2.00000000e-03
2.00000000e-03
2.00000000e-03
2.00000000e-03
2.00000000e-03
2.00000000e-03
2.00000000e-03
2.00000000e-03
2.00000000e-03
2.00000000e-03
2.00000000e-03
2.00000000e-03
2.00000000e-03
2.00000000e-03
2.00000000e-03
2.00000000e-03
2.00000000e-03
2.00000000e-03
2.00000000e-03
2.00000000e-03
2.00000000e-03
2.00000000e-03
2.00000000e-03
2.00000000e-03
