# vtk DataFile Version 2.0
Particle data
ASCII
DATASET POLYDATA
POINTS 469 double
3.61101000e-02	1.05849000e-04	8.88976000e-03
3.11308000e-02	-1.06388000e-02	1.42340000e-02
2.39195000e-02	-1.95902000e-02	5.77440000e-03
7.92462000e-03	-2.77799000e-03	1.02575000e-02
2.60663000e-02	-1.04240000e-02	2.61488000e-03
3.98769000e-02	3.00655000e-03	2.45844000e-03
3.32205000e-02	-1.47778000e-03	1.19341000e-02
1.36827000e-02	-4.06982000e-03	1.80996000e-02
3.09132000e-02	-1.96157000e-02	1.81003000e-02
-2.13528000e-03	-3.74771000e-02	1.80999000e-02
3.89205000e-02	9.12739000e-03	1.80841000e-02
3.06406000e-02	-7.65611000e-03	1.81003000e-02
2.44498000e-02	-3.16353000e-02	1.19515000e-02
2.27625000e-02	-1.67826000e-02	3.02204000e-03
3.95832000e-02	5.51162000e-03	1.45409000e-02
-4.27085000e-03	-3.36555000e-02	1.15155000e-02
1.25241000e-02	-2.76394000e-03	1.37109000e-02
3.31761000e-02	-1.42175000e-02	1.99822000e-03
1.10659000e-02	-9.84350000e-03	1.06468000e-02
3.53441000e-02	1.03586000e-02	1.18755000e-02
3.15989000e-02	1.16692000e-02	2.04519000e-03
2.79019000e-02	-2.43836000e-02	1.80998000e-02
-1.71019000e-02	-3.61484000e-02	2.01926000e-03
1.68562000e-02	-1.40847000e-02	2.00006000e-03
1.91640000e-02	-1.92308000e-02	2.00051000e-03
3.23899000e-03	-3.58182000e-02	8.95150000e-03
2.72263000e-02	1.51547000e-02	1.31539000e-02
3.15548000e-02	-1.83197000e-02	1.37064000e-02
7.98975000e-03	-2.32125000e-04	7.11776000e-03
1.80453000e-02	-8.29343000e-03	1.42130000e-02
2.95254000e-02	-1.74246000e-02	1.01046000e-02
3.81823000e-02	-1.18986000e-02	2.00072000e-03
3.37080000e-02	-1.25119000e-02	5.57589000e-03
1.74766000e-02	-2.37848000e-02	1.80993000e-02
1.08806000e-02	-3.84587000e-02	1.10573000e-02
2.61503000e-02	-2.10430000e-02	1.15284000e-02
3.95867000e-02	4.31968000e-03	6.77954000e-03
1.63408000e-02	6.38423000e-03	1.04572000e-02
3.18989000e-02	-5.17147000e-03	1.11540000e-02
2.08213000e-02	-1.34379000e-02	2.00014000e-03
2.00073000e-02	7.97355000e-03	8.84056000e-03
3.81281000e-02	-1.19253000e-02	1.46939000e-02
8.79970000e-03	-3.90077000e-02	2.44426000e-03
2.54685000e-02	-3.47777000e-03	1.50183000e-02
8.51739000e-03	-2.79346000e-02	1.71056000e-02
3.09399000e-02	1.12467000e-02	1.20001000e-02
2.64575000e-02	4.57322000e-03	1.51060000e-02
1.96404000e-02	-4.98008000e-03	7.77789000e-03
1.33756000e-02	-1.48395000e-02	1.44399000e-02
2.84038000e-02	-1.78670000e-03	1.78596000e-02
1.61129000e-02	-6.79636000e-03	2.20256000e-03
1.30407000e-02	-1.52927000e-02	8.77657000e-03
8.11864000e-03	1.40560000e-04	1.41808000e-02
1.36425000e-02	-1.14117000e-02	7.98151000e-03
-2.24352000e-03	-3.65407000e-02	9.39310000e-03
1.36508000e-02	5.32075000e-03	1.41898000e-02
-4.85799000e-03	-3.96558000e-02	8.68693000e-03
2.86728000e-02	7.89100000e-03	1.57002000e-02
1.20840000e-02	-3.45553000e-02	1.44033000e-02
6.75559000e-03	-3.12470000e-02	1.57245000e-02
1.44962000e-02	-3.36558000e-02	1.80960000e-02
1.61582000e-02	-2.56152000e-02	1.01039000e-02
2.13130000e-02	-1.01715000e-02	1.76025000e-02
-1.40189000e-03	-2.60809000e-02	1.09729000e-02
2.63364000e-02	-2.29776000e-02	4.23982000e-03
3.57485000e-02	1.44683000e-02	6.15320000e-03
4.02269000e-03	-3.97780000e-02	3.27422000e-03
2.99530000e-02	-1.15961000e-02	1.80989000e-02
5.87904000e-03	-3.57435000e-02	5.94566000e-03
2.16536000e-02	-3.35524000e-02	9.82867000e-03
2.47396000e-02	1.18857000e-02	5.22979000e-03
2.94453000e-02	-2.41432000e-02	1.99990000e-03
3.45665000e-02	2.76401000e-03	1.80948000e-02
2.85911000e-02	1.43131000e-02	9.48944000e-03
3.91511000e-02	-7.51929000e-03	6.22614000e-03
2.97010000e-02	1.69414000e-02	1.69882000e-02
1.90453000e-02	1.90871000e-04	8.99209000e-03
2.92122000e-02	-2.49935000e-03	9.87435000e-03
2.07662000e-02	-3.41758000e-02	1.80996000e-02
-3.57403000e-03	-3.29358000e-02	1.54724000e-02
2.88026000e-02	1.06469000e-02	5.85004000e-03
1.81191000e-02	-2.57976000e-02	6.45480000e-03
1.44469000e-02	-2.67913000e-02	2.00172000e-03
1.17090000e-02	-2.57437000e-02	1.81020000e-02
1.36994000e-02	-3.06921000e-02	2.47075000e-03
3.62859000e-02	1.41864000e-02	2.11697000e-03
3.65315000e-02	-7.56638000e-03	1.47395000e-02
-8.60371000e-03	-3.72816000e-02	9.51638000e-03
1.91543000e-02	-3.16549000e-02	6.38602000e-03
5.22529000e-03	-2.87008000e-02	4.39936000e-03
3.02822000e-02	1.42993000e-02	5.11202000e-03
3.08018000e-02	5.36691000e-04	1.99992000e-03
2.97301000e-02	-2.33729000e-02	6.32097000e-03
2.71888000e-02	1.80288000e-02	1.03723000e-02
2.67684000e-02	-1.62648000e-02	6.78089000e-03
3.31951000e-02	-2.22654000e-02	8.18173000e-03
-4.06986000e-03	-2.77386000e-02	5.86996000e-03
3.71110000e-03	-3.64116000e-02	1.28776000e-02
2.02656000e-02	-1.74627000e-02	1.80992000e-02
2.27503000e-02	-1.55067000e-02	6.90779000e-03
2.95205000e-03	-3.05984000e-02	8.35167000e-03
4.88293000e-03	-3.26266000e-02	1.23279000e-02
6.13669000e-03	-9.48633000e-03	1.33661000e-02
2.46854000e-02	-3.14532000e-02	1.72992000e-02
6.67116000e-03	-3.21788000e-02	7.57755000e-03
2.02854000e-02	-5.40435000e-03	2.26903000e-03
1.02499000e-02	-1.79473000e-02	5.51352000e-03
8.75430000e-03	-2.07102000e-02	8.12526000e-03
1.39638000e-03	-3.70339000e-02	1.99797000e-03
2.72075000e-02	-7.82754000e-03	5.43449000e-03
-4.53980000e-03	-3.67511000e-02	1.99990000e-03
2.95345000e-02	1.31012000e-02	1.81015000e-02
2.74074000e-02	6.72694000e-03	1.18715000e-02
6.26382000e-03	-1.38284000e-02	2.00061000e-03
1.79216000e-02	-2.84390000e-02	1.45372000e-02
7.15921000e-03	-3.26509000e-02	1.99966000e-03
1.90406000e-02	1.08312000e-02	1.18400000e-02
-4.70780000e-03	-3.97133000e-02	4.68234000e-03
2.78849000e-02	-1.38094000e-02	1.06343000e-02
3.83408000e-02	-1.12345000e-02	7.46549000e-03
3.18824000e-02	4.42880000e-03	2.00004000e-03
1.69072000e-02	-1.66604000e-02	1.57260000e-02
3.68498000e-02	1.25592000e-02	1.81005000e-02
1.83291000e-02	-3.55362000e-02	5.88459000e-03
2.76498000e-02	-2.88874000e-02	1.81000000e-02
3.45948000e-02	1.07686000e-02	5.16293000e-03
3.98841000e-02	4.77882000e-04	5.70773000e-03
3.16939000e-02	-6.29759000e-03	7.32134000e-03
1.59347000e-02	-2.95167000e-03	1.13179000e-02
1.86325000e-02	-1.25918000e-03	2.00208000e-03
1.88706000e-02	2.19093000e-03	5.53246000e-03
2.94672000e-02	-2.70430000e-02	4.75447000e-03
2.65146000e-02	1.02912000e-02	1.80633000e-02
3.45101000e-02	-1.30040000e-02	1.33730000e-02
1.80536000e-02	-1.52848000e-02	7.87327000e-03
1.51617000e-02	-3.69083000e-02	1.34078000e-02
2.98145000e-02	-1.64860000e-02	3.85934000e-03
3.64696000e-02	9.62144000e-04	1.99940000e-03
1.57175000e-02	-1.81551000e-02	1.22119000e-02
1.82709000e-02	6.79479000e-03	1.79536000e-02
1.40824000e-02	-3.04732000e-02	1.57100000e-02
3.35171000e-02	8.15920000e-03	2.01798000e-03
3.26738000e-02	8.85469000e-03	1.46965000e-02
1.74862000e-02	5.78831000e-03	6.60141000e-03
3.25222000e-02	1.87377000e-03	8.77360000e-03
3.81966000e-02	1.07269000e-02	2.73488000e-03
-1.32692000e-02	-3.77188000e-02	2.04780000e-03
3.93057000e-02	6.94475000e-03	2.05292000e-03
1.49507000e-02	-2.07650000e-02	8.38201000e-03
6.02201000e-03	-2.58247000e-02	1.47947000e-02
3.07386000e-02	4.66514000e-03	1.10156000e-02
9.15146000e-03	-2.46891000e-02	8.33060000e-03
3.99064000e-02	-2.04174000e-03	1.14845000e-02
3.16264000e-02	1.40024000e-02	1.48155000e-02
1.61441000e-02	-6.80385000e-03	1.02549000e-02
7.49298000e-03	-1.22446000e-02	1.08034000e-02
3.98099000e-02	-3.80136000e-03	4.90710000e-03
2.19489000e-02	-1.18423000e-02	5.51829000e-03
2.18040000e-02	-3.35179000e-02	1.42886000e-02
2.66893000e-02	-2.34157000e-03	2.29931000e-03
3.13050000e-02	-1.89708000e-02	6.87325000e-03
3.99634000e-02	-1.01802000e-03	1.99948000e-03
1.67531000e-02	-3.39814000e-02	9.24424000e-03
9.40753000e-03	2.64905000e-03	1.80221000e-02
1.44672000e-02	-2.27918000e-02	1.99957000e-03
2.82587000e-02	-7.83324000e-03	1.30987000e-02
1.70657000e-02	-1.06066000e-02	1.10989000e-02
3.51232000e-02	6.81580000e-03	5.47087000e-03
-1.75600000e-03	-2.14710000e-02	1.80987000e-02
-9.85214000e-03	-3.87392000e-02	5.99330000e-03
3.98649000e-02	1.47566000e-03	9.58092000e-03
6.95344000e-03	-3.60255000e-02	1.05558000e-02
2.10281000e-02	-3.68953000e-03	1.13076000e-02
3.25818000e-02	-6.93798000e-03	1.46769000e-02
2.95681000e-02	-3.22838000e-04	5.76458000e-03
3.58552000e-02	-4.46384000e-03	1.23082000e-02
3.63655000e-02	-1.66362000e-02	2.00005000e-03
2.33272000e-02	-2.77781000e-02	1.81006000e-02
3.95404000e-02	-5.99918000e-03	1.80703000e-02
1.34175000e-02	-2.50921000e-02	7.23729000e-03
1.19963000e-02	-2.51489000e-03	9.49227000e-03
1.64795000e-02	-2.90896000e-02	4.88175000e-03
2.69930000e-02	-5.52183000e-03	1.81000000e-02
-4.18493000e-03	-2.46842000e-02	8.46100000e-03
2.08908000e-02	-2.27217000e-02	1.15813000e-02
3.95301000e-02	-5.76186000e-03	9.80309000e-03
3.54159000e-02	6.14399000e-03	1.36327000e-02
3.58478000e-02	-1.76231000e-02	1.43371000e-02
2.41786000e-02	-1.20827000e-03	1.80851000e-02
3.91753000e-02	-8.02513000e-03	2.00140000e-03
7.93120000e-04	-3.13239000e-02	1.22696000e-02
1.56767000e-02	-2.51619000e-02	1.40489000e-02
-1.43819000e-02	-3.72659000e-02	1.36048000e-02
1.85627000e-03	-2.27810000e-02	9.15406000e-03
1.99393000e-02	-1.81115000e-02	5.76169000e-03
1.64445000e-02	-1.18367000e-03	1.75489000e-02
2.13496000e-02	-2.65448000e-02	1.03430000e-02
8.59678000e-03	-1.59886000e-02	9.91998000e-03
2.41933000e-02	-5.06846000e-03	9.20229000e-03
1.37986000e-03	-3.55676000e-02	1.81000000e-02
3.20590000e-02	1.59001000e-02	1.13131000e-02
3.16969000e-02	1.21581000e-02	8.18022000e-03
-1.10346000e-02	-3.62294000e-02	1.55722000e-02
2.80699000e-02	-2.84224000e-02	1.17409000e-02
3.24963000e-05	-3.53375000e-02	1.41312000e-02
2.61739000e-02	3.87996000e-03	9.34222000e-03
1.50042000e-02	-5.73785000e-03	1.47108000e-02
2.49975000e-02	1.38670000e-02	1.70732000e-02
2.77660000e-02	-1.86092000e-02	1.49520000e-02
1.73734000e-02	3.79246000e-03	1.41498000e-02
1.11592000e-02	-3.83929000e-02	1.50467000e-02
6.73304000e-03	-2.58074000e-02	2.00494000e-03
8.24449000e-03	-3.56797000e-02	1.44119000e-02
1.03997000e-02	-3.07219000e-02	1.41580000e-02
3.12125000e-02	-1.45589000e-02	1.50241000e-02
2.30835000e-02	-2.06375000e-02	2.00585000e-03
[...]
POINT_DATA 469
SCALARS Radius double 1
LOOKUP_TABLE default
2.00000000e-03
2.00000000e-03
2.00000000e-03
2.00000000e-03
2.00000000e-03
2.00000000e-03
2.00000000e-03
2.00000000e-03
2.00000000e-03
2.00000000e-03
2.00000000e-03
2.00000000e-03
2.00000000e-03
2.00000000e-03
2.00000000e-03
2.00000000e-03
2.00000000e-03
2.00000000e-03
2.00000000e-03
2.00000000e-03
2.00000000e-03
2.00000000e-03
2.00000000e-03
2.00000000e-03
2.00000000e-03
2.00000000e-03
2.00000000e-03
2.00000000e-03
2.00000000e-03
2.00000000e-03
2.00000000e-03
2.00000000e-03
2.00000000e-03
2.00000000e-03
2.00000000e-03
2.00000000e-03
2.00000000e-03
2.00000000e-03
2.00000000e-03
2.00000000e-03
2.00000000e-03
2.00000000e-03
2.00000000e-03
2.00000000e-03
2.00000000e-03
2.00000000e-03
2.00000000e-03
2.00000000e-03
2.00000000e-03
2.00000000e-03
2.00000000e-03
2.00000000e-03
2.00000000e-03
2.00000000e-03
2.00000000e-03
2.00000000e-03
2.00000000e-03
2.00000000e-03
2.00000000e-03
2.00000000e-03
2.00000000e-03
2.00000000e-03
2.00000000e-03
2.00000000e-03
2.00000000e-03
2.00000000e-03
2.00000000e-03
2.00000000e-03
2.00000000e-03
2.00000000e-03
2.00000000e-03
2.00000000e-03
2.00000000e-03
2.00000000e-03
2.00000000e-03
2.00000000e-03
2.00000000e-03
2.00000000e-03
2.00000000e-03
2.00000000e-03
2.00000000e-03
2.00000000e-03
2.00000000e-03
2.00000000e-03
2.00000000e-03
2.00000000e-03
2.00000000e-03
2.00000000e-03
2.00000000e-03
2.00000000e-03
2.00000000e-03
2.00000000e-03
2.00000000e-03
2.00000000e-03
2.00000000e-03
2.00000000e-03
2.00000000e-03
2.00000000e-03
2.00000000e-03
2.00000000e-03
2.00000000e-03
2.00000000e-03
2.00000000e-03
2.00000000e-03
2.00000000e-03
2.00000000e-03
2.00000000e-03
2.00000000e-03
2.00000000e-03
2.00000000e-03
2.00000000e-03
2.00000000e-03
2.00000000e-03
2.00000000e-03
2.00000000e-03
2.00000000e-03
2.00000000e-03
2.00000000e-03
2.00000000e-03
2.00000000e-03
2.00000000e-03
2.00000000e-03
2.00000000e-03
2.00000000e-03
2.00000000e-03
2.00000000e-03
2.00000000e-03
2.00000000e-03
2.00000000e-03
2.00000000e-03
2.00000000e-03
2.00000000e-03
2.00000000e-03
2.00000000e-03
2.00000000e-03
2.00000000e-03
2.00000000e-03
2.00000000e-03
2.00000000e-03
2.00000000e-03
2.00000000e-03
2.00000000e-03
2.00000000e-03
2.00000000e-03
2.00000000e-03
2.00000000e-03
2.00000000e-03
2.00000000e-03
2.00000000e-03
2.00000000e-03
2.00000000e-03
2.00000000e-03
2.00000000e-03
2.00000000e-03
2.00000000e-03
2.00000000e-03
2.00000000e-03
2.00000000e-03
2.00000000e-03
2.00000000e-03
2.00000000e-03
2.00000000e-03
2.00000000e-03
2.00000000e-03
2.00000000e-03
2.00000000e-03
2.00000000e-03
2.00000000e-03
2.00000000e-03
2.00000000e-03
2.00000000e-03
2.00000000e-03
2.00000000e-03
2.00000000e-03
2.00000000e-03
2.00000000e-03
2.00000000e-03
2.00000000e-03
2.00000000e-03
2.00000000e-03
2.00000000e-03
2.00000000e-03
2.00000000e-03
2.00000000e-03
2.00000000e-03
2.00000000e-03
2.00000000e-03
2.00000000e-03
2.00000000e-03
2.00000000e-03
2.00000000e-03
2.00000000e-03
2.00000000e-03
2.00000000e-03
2.00000000e-03
2.00000000e-03
2.00000000e-03
2.00000000e-03
2.00000000e-03
2.00000000e-03
2.00000000e-03
2.00000000e-03
2.00000000e-03
2.00000000e-03
2.00000000e-03
2.00000000e-03
2.00000000e-03
2.00000000e-03
2.00000000e-03
2.00000000e-03
2.00000000e-03
2.00000000e-03
2.00000000e-03
2.00000000e-03
2.00000000e-03
2.00000000e-03
2.00000000e-03
2.00000000e-03
2.00000000e-03
2.00000000e-03
2.00000000e-03
2.00000000e-03
2.00000000e-03
2.00000000e-03
2.00000000e-03
2.00000000e-03
2.00000000e-03
2.00000000e-03
2.00000000e-03
2.00000000e-03
2.00000000e-03
2.00000000e-03
2.00000000e-03
2.00000000e-03
2.00000000e-03
2.00000000e-03
2.00000000e-03
2.00000000e-03
2.00000000e-03
2.00000000e-03
2.00000000e-03
2.00000000e-03
2.00000000e-03
2.00000000e-03
2.00000000e-03
2.00000000e-03
2.00000000e-03
2.00000000e-03
2.00000000e-03
2.00000000e-03
2.00000000e-03
2.00000000e-03
2.00000000e-03
2.00000000e-03
2.00000000e-03
2.00000000e-03
2.00000000e-03
2.00000000e-03
2.00000000e-03
2.00000000e-03
2.00000000e-03
2.00000000e-03
2.00000000e-03
2.00000000e-03
2.00000000e-03
2.00000000e-03
2.00000000e-03
2.00000000e-03
2.00000000e-03
2.00000000e-03
2.00000000e-03
2.00000000e-03
2.00000000e-03
2.00000000e-03
2.00000000e-03
2.00000000e-03
2.00000000e-03
2.00000000e-03
2.00000000e-03
2.00000000e-03
2.00000000e-03
2.00000000e-03
2.00000000e-03
2.00000000e-03
2.00000000e-03
2.00000000e-03
2.00000000e-03
2.00000000e-03
2.00000000e-03
2.00000000e-03
2.00000000e-03
2.00000000e-03
2.00000000e-03
2.00000000e-03
2.00000000e-03
2.00000000e-03
2.00000000e-03
2.00000000e-03
2.00000000e-03
2.00000000e-03
2.00000000e-03
2.00000000e-03
2.00000000e-03
2.00000000e-03
2.00000000e-03
2.00000000e-03
2.00000000e-03
2.00000000e-03
2.00000000e-03
2.00000000e-03
2.00000000e-03
2.00000000e-03
2.00000000e-03
2.00000000e-03
2.00000000e-03
2.00000000e-03
2.00000000e-03
2.00000000e-03
2.00000000e-03
2.00000000e-03
2.00000000e-03
2.00000000e-03
2.00000000e-03
2.00000000e-03
2.00000000e-03
2.00000000e-03
2.00000000e-03
2.00000000e-03
2.00000000e-03
2.00000000e-03
2.00000000e-03
2.00000000e-03
2.00000000e-03
2.00000000e-03
2.00000000e-03
2.00000000e-03
2.00000000e-03
2.00000000e-03
2.00000000e-03
2.00000000e-03
2.00000000e-03
2.00000000e-03
2.00000000e-03
2.00000000e-03
2.00000000e-03
2.00000000e-03
2.00000000e-03
2.00000000e-03
2.00000000e-03
2.00000000e-03
2.00000000e-03
2.00000000e-03
2.00000000e-03
2.00000000e-03
2.00000000e-03
2.00000000e-03
2.00000000e-03
2.00000000e-03
2.00000000e-03
2.00000000e-03
2.00000000e-03
2.00000000e-03
2.00000000e-03
2.00000000e-03
2.00000000e-03
2.00000000e-03
2.00000000e-03
2.00000000e-03
2.00000000e-03
2.00000000e-03
2.00000000e-03
2.00000000e-03
2.00000000e-03
2.00000000e-03
2.00000000e-03
2.00000000e-03
2.00000000e-03
2.00000000e-03
2.00000000e-03
2.00000000e-03
2.00000000e-03
2.00000000e-03
2.00000000e-03
2.00000000e-03
2.00000000e-03
2.00000000e-03
2.00000000e-03
2.00000000e-03
2.00000000e-03
2.00000000e-03
2.00000000e-03
2.00000000e-03
2.00000000e-03
2.00000000e-03
2.00000000e-03
2.00000000e-03
2.00000000e-03
2.00000000e-03
2.00000000e-03
2.00000000e-03
2.00000000e-03
2.00000000e-03
2.00000000e-03
2.00000000e-03
2.00000000e-03
2.00000000e-03
2.00000000e-03
2.00000000e-03
2.00000000e-03
2.00000000e-03
2.00000000e-03
2.00000000e-03
2.00000000e-03
2.00000000e-03
2.00000000e-03
2.00000000e-03
2.00000000e-03
2.00000000e-03
2.00000000e-03
2.00000000e-03
2.00000000e-03
2.00000000e-03
2.00000000e-03
2.00000000e-03
2.00000000e-03
2.00000000e-03
2.00000000e-03
2.00000000e-03
2.00000000e-03
2.00000000e-03
2.00000000e-03
2.00000000e-03
2.00000000e-03
2.00000000e-03
2.00000000e-03
2.00000000e-03
2.00000000e-03
2.00000000e-03
2.00000000e-03
2.00000000e-03
2.00000000e-03
2.00000000e-03
2.00000000e-03
2.00000000e-03
2.00000000e-03
2.00000000e-03
2.00000000e-03
2.00000000e-03
2.00000000e-03
2.00000000e-03
2.00000000e-03
2.00000000e-03
2.00000000e-03
2.00000000e-03
2.00000000e-03
2.00000000e-03
2.00000000e-03
2.00000000e-03
2.00000000e-03
2.00000000e-03
2.00000000e-03
2.00000000e-03
2.00000000e-03
2.00000000e-03
2.00000000e-03
2.00000000e-03
2.00000000e-03
2.00000000e-03
2.00000000e-03
