# vtk DataFile Version 2.0
Particle data
ASCII
DATASET POLYDATA
POINTS 469 double
3.61834000e-02	4.95106000e-03	1.43540000e-02
2.36352000e-02	1.24682000e-03	1.27639000e-02
3.58204000e-02	-1.76398000e-02	1.40859000e-02
8.94385000e-03	-2.63012000e-02	1.21819000e-02
2.36862000e-02	5.62051000e-03	4.02037000e-03
3.56891000e-02	-1.06249000e-03	1.99900000e-03
3.96732000e-02	-5.00690000e-03	1.78579000e-02
1.30487000e-02	-2.55286000e-02	1.80727000e-02
2.81231000e-02	-2.84143000e-02	1.71949000e-02
-3.05573000e-03	-3.98475000e-02	1.54732000e-02
3.46671000e-02	8.38775000e-03	7.19313000e-03
2.97922000e-02	1.58995000e-03	1.79202000e-02
1.55916000e-02	-3.67481000e-02	7.77423000e-03
2.07130000e-02	-8.41742000e-04	5.85335000e-03
2.81091000e-02	8.93456000e-03	1.16666000e-02
-1.55451000e-03	-3.59211000e-02	1.12849000e-02
2.07134000e-02	-8.90288000e-03	9.19334000e-03
3.26218000e-02	-3.86009000e-03	2.29757000e-03
2.06192000e-02	-1.27451000e-02	1.44106000e-02
3.97479000e-02	3.98176000e-03	5.03667000e-03
3.37002000e-02	1.33266000e-02	2.00050000e-03
2.94697000e-02	-2.13374000e-02	1.81004000e-02
-1.05406000e-02	-3.15385000e-02	2.01895000e-03
3.50987000e-02	-1.47081000e-02	5.34425000e-03
3.45744000e-02	-6.65979000e-03	5.56044000e-03
-6.99984000e-03	-3.93174000e-02	1.44282000e-02
2.94179000e-02	1.50884000e-02	1.56400000e-02
3.43601000e-02	-1.09377000e-02	1.81001000e-02
-3.21172000e-03	-3.23430000e-02	2.28569000e-03
1.56851000e-02	-2.85357000e-02	1.81017000e-02
2.90062000e-02	2.27970000e-03	8.79810000e-03
2.87845000e-02	-2.76634000e-02	9.37992000e-03
2.90781000e-02	-2.74526000e-03	7.63926000e-03
2.70154000e-02	-1.39424000e-02	1.51409000e-02
1.23063000e-02	-3.45443000e-02	8.42120000e-03
2.69449000e-02	-9.99649000e-03	1.44935000e-02
3.97205000e-02	4.07858000e-03	9.63333000e-03
1.45463000e-02	5.18492000e-03	7.93075000e-03
3.23873000e-02	2.86164000e-05	1.42274000e-02
3.19967000e-02	6.19008000e-03	4.94707000e-03
5.01217000e-03	-1.79558000e-02	1.43903000e-02
3.36616000e-02	-1.38888000e-02	1.54923000e-02
7.99256000e-03	-3.18070000e-02	2.08569000e-03
3.46918000e-02	1.07700000e-02	1.78937000e-02
2.34979000e-02	-1.55031000e-02	1.40387000e-02
3.26150000e-02	1.26270000e-02	1.14491000e-02
2.20238000e-02	-1.39703000e-03	1.52966000e-02
2.23178000e-02	4.69161000e-03	1.44762000e-02
1.98455000e-02	-9.04788000e-03	1.30951000e-02
3.76479000e-02	1.34570000e-02	1.80924000e-02
5.06127000e-03	-2.76840000e-02	1.99957000e-03
1.58899000e-02	-9.80101000e-03	1.42829000e-02
2.11719000e-02	8.61135000e-03	1.38851000e-02
1.31391000e-02	-2.18570000e-02	2.00402000e-03
1.07645000e-02	-2.74199000e-02	5.59698000e-03
-8.28422000e-03	-3.40955000e-02	1.80856000e-02
1.00200000e-03	-3.43791000e-02	5.94410000e-03
1.95214000e-02	6.39788000e-03	1.80971000e-02
1.91842000e-02	-2.46323000e-02	1.42750000e-02
1.68089000e-02	-2.78480000e-02	1.43273000e-02
2.10740000e-02	-2.74983000e-02	1.20456000e-02
2.81248000e-02	-1.26738000e-02	1.15131000e-02
1.47208000e-02	-1.81286000e-02	1.80268000e-02
-5.83146000e-03	-3.40026000e-02	1.32002000e-02
3.06842000e-02	-1.08841000e-02	3.63680000e-03
2.92910000e-02	1.30165000e-02	6.22214000e-03
-1.07290000e-02	-3.84592000e-02	4.76523000e-03
3.12343000e-02	-3.61936000e-03	1.58457000e-02
1.09146000e-02	-3.13055000e-02	6.53273000e-03
2.03981000e-02	-2.98693000e-02	1.99936000e-03
4.46124000e-03	-2.03459000e-02	1.11609000e-02
2.73375000e-02	-2.80152000e-02	5.66743000e-03
3.87612000e-02	9.58235000e-03	1.78668000e-02
3.92853000e-02	7.47276000e-03	1.42215000e-02
3.58271000e-02	-1.77496000e-02	2.85112000e-03
3.68550000e-03	-2.05091000e-02	1.77394000e-02
1.95021000e-02	-3.02449000e-02	5.87880000e-03
3.99131000e-02	4.13753000e-05	5.87092000e-03
1.52021000e-02	-3.69908000e-02	1.79183000e-02
-2.60594000e-03	-3.54025000e-02	1.51078000e-02
1.80611000e-02	4.90131000e-03	9.97590000e-03
1.83420000e-02	-5.70774000e-03	9.60052000e-03
1.98280000e-02	-1.85596000e-02	7.29855000e-03
2.42196000e-02	-1.41744000e-02	1.79916000e-02
2.40828000e-02	-2.63930000e-02	4.00235000e-03
3.76959000e-02	1.30686000e-02	1.99983000e-03
1.82497000e-02	-1.57220000e-03	1.80660000e-02
-2.10847000e-02	-3.37094000e-02	6.42500000e-03
2.89377000e-02	-1.36502000e-02	5.93713000e-03
1.55279000e-02	-2.40382000e-02	6.44251000e-03
3.29069000e-02	1.65131000e-02	1.27487000e-02
3.27561000e-02	1.00478000e-02	4.08781000e-03
3.29041000e-02	-2.25822000e-02	9.11263000e-03
3.35706000e-02	1.76531000e-02	5.33718000e-03
2.92478000e-02	-4.83353000e-03	1.11199000e-02
2.51892000e-02	-3.10584000e-02	1.80306000e-02
-9.79267000e-03	-3.24224000e-02	6.18340000e-03
6.94572000e-03	-3.58935000e-02	1.35818000e-02
2.89468000e-02	-1.64265000e-02	1.04004000e-02
3.18912000e-02	-2.35528000e-04	9.95491000e-03
1.20197000e-02	-3.18855000e-02	1.13933000e-02
1.62266000e-02	-1.44239000e-02	1.79781000e-02
-5.97726000e-03	-2.85517000e-02	1.23942000e-02
2.34242000e-02	-2.46211000e-02	1.47338000e-02
1.69816000e-02	-3.22857000e-02	1.66881000e-02
3.65088000e-02	1.35323000e-02	1.13293000e-02
2.57396000e-02	-1.17387000e-02	7.40578000e-03
1.84512000e-02	-2.92960000e-02	9.61880000e-03
9.10267000e-03	-2.79655000e-02	1.99988000e-03
2.90826000e-02	6.27754000e-03	8.84031000e-03
-7.64507000e-04	-3.76056000e-02	3.68745000e-03
2.68458000e-02	1.25824000e-02	1.80791000e-02
1.01372000e-02	-1.40133000e-03	1.61015000e-02
1.54323000e-02	-2.01471000e-02	7.36329000e-03
2.11904000e-02	-3.09983000e-02	1.81001000e-02
1.16276000e-02	-3.36149000e-02	1.99920000e-03
3.43026000e-02	1.35528000e-02	1.50476000e-02
-7.59658000e-03	-3.90761000e-02	2.00063000e-03
1.44472000e-02	-6.78214000e-03	4.08698000e-03
3.86660000e-02	-1.01736000e-02	1.99992000e-03
2.58108000e-02	1.39718000e-02	2.15790000e-03
2.66821000e-02	-1.96945000e-02	1.20511000e-02
3.99330000e-02	1.77881000e-03	1.72632000e-02
1.55440000e-02	-3.26120000e-02	2.00367000e-03
3.07604000e-02	-2.55466000e-02	1.81000000e-02
3.78354000e-02	1.13168000e-02	1.43836000e-02
3.68311000e-02	-3.15419000e-03	5.53305000e-03
3.70425000e-02	7.28527000e-05	1.19919000e-02
-9.06877000e-03	-3.58980000e-02	1.45883000e-02
1.14211000e-02	-3.44847000e-04	2.00193000e-03
-5.56945000e-03	-3.55611000e-02	1.99954000e-03
2.39710000e-02	-3.19593000e-02	9.52358000e-03
2.40205000e-02	9.85717000e-03	1.73117000e-02
3.77719000e-02	-6.20193000e-03	7.96286000e-03
2.63056000e-02	-5.62878000e-03	7.42698000e-03
1.32532000e-02	-3.76699000e-02	1.30155000e-02
2.48149000e-02	-2.02049000e-03	6.55562000e-03
3.98180000e-02	-2.67619000e-03	1.99958000e-03
2.61790000e-02	-2.68650000e-02	1.28971000e-02
2.43007000e-02	-6.57672000e-03	1.70159000e-02
1.34138000e-02	-3.34179000e-02	1.80992000e-02
3.82803000e-02	9.10888000e-03	1.07128000e-02
2.15136000e-02	-5.48169000e-03	1.38011000e-02
2.85357000e-02	1.83200000e-02	4.91061000e-03
3.45896000e-02	4.11287000e-04	5.54985000e-03
3.93686000e-02	6.96316000e-03	2.00021000e-03
-1.24481000e-02	-3.44589000e-02	3.97625000e-03
3.28037000e-02	1.71368000e-03	1.99989000e-03
2.34606000e-02	-6.17455000e-03	1.01933000e-02
7.54576000e-03	-3.92665000e-02	1.80881000e-02
1.49929000e-02	-2.06727000e-05	1.58533000e-02
2.52311000e-02	-1.70249000e-02	9.04685000e-03
3.57151000e-02	-2.66361000e-03	9.34262000e-03
1.92816000e-02	1.92450000e-03	1.41013000e-02
7.31990000e-03	-2.43983000e-02	2.30912000e-03
-1.25058000e-02	-3.79478000e-02	1.45598000e-02
3.64471000e-02	-4.98944000e-03	1.99988000e-03
8.93360000e-03	-1.73975000e-02	4.59525000e-03
1.97996000e-02	-3.47480000e-02	1.81002000e-02
2.91127000e-02	3.41901000e-03	4.96718000e-03
3.52218000e-02	-1.01007000e-02	9.08340000e-03
3.99615000e-02	1.32011000e-03	2.05900000e-03
1.90996000e-02	-2.24906000e-02	7.35995000e-03
-5.86495000e-03	-2.30399000e-02	1.77265000e-02
2.13928000e-02	-1.54599000e-02	5.31545000e-03
2.94645000e-02	2.35147000e-03	1.27792000e-02
1.02869000e-02	-2.47347000e-02	8.57399000e-03
3.98609000e-02	-2.85635000e-03	8.62764000e-03
-1.04285000e-04	-3.62864000e-02	1.81004000e-02
-7.79874000e-03	-3.69791000e-02	7.13936000e-03
3.84319000e-02	-1.10317000e-02	1.66901000e-02
6.21569000e-03	-3.95057000e-02	2.00152000e-03
1.49547000e-02	5.32991000e-03	1.80329000e-02
2.66396000e-02	3.22475000e-03	1.59309000e-02
3.95773000e-02	5.67378000e-03	1.81002000e-02
3.50357000e-02	-1.92315000e-02	9.58878000e-03
2.70516000e-02	-1.12838000e-02	1.99994000e-03
2.41353000e-02	-2.79632000e-02	9.51375000e-03
3.24147000e-02	-1.95587000e-02	1.49327000e-02
3.09661000e-02	-2.17783000e-02	5.70717000e-03
-1.89554000e-03	-3.16166000e-02	7.12438000e-03
2.81389000e-02	-8.87525000e-03	5.97787000e-03
3.46528000e-02	1.61132000e-02	1.81002000e-02
5.86904000e-03	-5.50562000e-03	1.12926000e-02
2.92263000e-02	-9.67847000e-03	1.81006000e-02
3.41526000e-02	-6.31652000e-03	9.80330000e-03
1.15393000e-02	-1.55304000e-02	2.00119000e-03
3.32581000e-02	-1.25740000e-02	1.15350000e-02
3.57786000e-02	6.92606000e-03	1.80825000e-02
3.46827000e-02	-8.57835000e-03	1.99857000e-03
1.07846000e-02	-2.85997000e-02	9.47518000e-03
2.02215000e-02	-1.42401000e-02	1.80991000e-02
-9.30933000e-03	-2.58136000e-02	8.42535000e-03
3.34100000e-02	1.91046000e-02	1.57540000e-02
1.65558000e-02	2.90326000e-03	2.00717000e-03
3.40250000e-03	-3.00426000e-02	1.19261000e-02
2.89223000e-02	-1.73839000e-02	1.44237000e-02
2.41972000e-02	-1.35056000e-02	1.06453000e-02
1.01790000e-02	-1.81096000e-02	8.43728000e-03
9.00369000e-04	-3.89669000e-02	1.42420000e-02
2.60731000e-02	1.12785000e-02	1.41879000e-02
1.16315000e-02	-4.02108000e-03	1.17914000e-02
-3.02396000e-03	-2.76381000e-02	1.76306000e-02
2.85521000e-02	-2.25635000e-02	1.44057000e-02
8.58214000e-03	-3.54034000e-02	1.81001000e-02
6.81362000e-03	-1.30751000e-02	4.76541000e-03
-8.21879000e-03	-2.85288000e-02	1.78708000e-02
2.49356000e-02	1.00416000e-02	4.30628000e-03
2.71182000e-02	-4.44224000e-04	1.44150000e-02
1.06667000e-02	-1.68585000e-02	1.47896000e-02
1.36313000e-02	-3.09761000e-02	1.49389000e-02
1.26288000e-02	-2.57985000e-02	2.45182000e-03
9.64842000e-03	-3.87300000e-02	1.43866000e-02
2.59490000e-02	-2.02458000e-02	1.63664000e-02
2.12438000e-02	-1.03732000e-02	1.80969000e-02
2.55909000e-02	-3.50076000e-03	2.89441000e-03
[...]
POINT_DATA 469
SCALARS Radius double 1
LOOKUP_TABLE default
2.00000000e-03
2.00000000e-03
2.00000000e-03
2.00000000e-03
2.00000000e-03
2.00000000e-03
2.00000000e-03
2.00000000e-03
2.00000000e-03
2.00000000e-03
2.00000000e-03
2.00000000e-03
2.00000000e-03
2.00000000e-03
2.00000000e-03
2.00000000e-03
2.00000000e-03
2.00000000e-03
2.00000000e-03
2.00000000e-03
2.00000000e-03
2.00000000e-03
2.00000000e-03
2.00000000e-03
2.00000000e-03
2.00000000e-03
2.00000000e-03
2.00000000e-03
2.00000000e-03
2.00000000e-03
2.00000000e-03
2.00000000e-03
2.00000000e-03
2.00000000e-03
2.00000000e-03
2.00000000e-03
2.00000000e-03
2.00000000e-03
2.00000000e-03
2.00000000e-03
2.00000000e-03
2.00000000e-03
2.00000000e-03
2.00000000e-03
2.00000000e-03
2.00000000e-03
2.00000000e-03
2.00000000e-03
2.00000000e-03
2.00000000e-03
2.00000000e-03
2.00000000e-03
2.00000000e-03
2.00000000e-03
2.00000000e-03
2.00000000e-03
2.00000000e-03
2.00000000e-03
2.00000000e-03
2.00000000e-03
2.00000000e-03
2.00000000e-03
2.00000000e-03
2.00000000e-03
2.00000000e-03
2.00000000e-03
2.00000000e-03
2.00000000e-03
2.00000000e-03
2.00000000e-03
2.00000000e-03
2.00000000e-03
2.00000000e-03
2.00000000e-03
2.00000000e-03
2.00000000e-03
2.00000000e-03
2.00000000e-03
2.00000000e-03
2.00000000e-03
2.00000000e-03
2.00000000e-03
2.00000000e-03
2.00000000e-03
2.00000000e-03
2.00000000e-03
2.00000000e-03
2.00000000e-03
2.00000000e-03
2.00000000e-03
2.00000000e-03
2.00000000e-03
2.00000000e-03
2.00000000e-03
2.00000000e-03
2.00000000e-03
2.00000000e-03
2.00000000e-03
2.00000000e-03
2.00000000e-03
2.00000000e-03
2.00000000e-03
2.00000000e-03
2.00000000e-03
2.00000000e-03
2.00000000e-03
2.00000000e-03
2.00000000e-03
2.00000000e-03
2.00000000e-03
2.00000000e-03
2.00000000e-03
2.00000000e-03
2.00000000e-03
2.00000000e-03
2.00000000e-03
2.00000000e-03
2.00000000e-03
2.00000000e-03
2.00000000e-03
2.00000000e-03
2.00000000e-03
2.00000000e-03
2.00000000e-03
2.00000000e-03
2.00000000e-03
2.00000000e-03
2.00000000e-03
2.00000000e-03
2.00000000e-03
2.00000000e-03
2.00000000e-03
2.00000000e-03
2.00000000e-03
2.00000000e-03
2.00000000e-03
2.00000000e-03
2.00000000e-03
2.00000000e-03
2.00000000e-03
2.00000000e-03
2.00000000e-03
2.00000000e-03
2.00000000e-03
2.00000000e-03
2.00000000e-03
2.00000000e-03
2.00000000e-03
2.00000000e-03
2.00000000e-03
2.00000000e-03
2.00000000e-03
2.00000000e-03
2.00000000e-03
2.00000000e-03
2.00000000e-03
2.00000000e-03
2.00000000e-03
2.00000000e-03
2.00000000e-03
2.00000000e-03
2.00000000e-03
2.00000000e-03
2.00000000e-03
2.00000000e-03
2.00000000e-03
2.00000000e-03
2.00000000e-03
2.00000000e-03
2.00000000e-03
2.00000000e-03
2.00000000e-03
2.00000000e-03
2.00000000e-03
2.00000000e-03
2.00000000e-03
2.00000000e-03
2.00000000e-03
2.00000000e-03
2.00000000e-03
2.00000000e-03
2.00000000e-03
2.00000000e-03
2.00000000e-03
2.00000000e-03
2.00000000e-03
2.00000000e-03
2.00000000e-03
2.00000000e-03
2.00000000e-03
2.00000000e-03
2.00000000e-03
2.00000000e-03
2.00000000e-03
2.00000000e-03
2.00000000e-03
2.00000000e-03
2.00000000e-03
2.00000000e-03
2.00000000e-03
2.00000000e-03
2.00000000e-03
2.00000000e-03
2.00000000e-03
2.00000000e-03
2.00000000e-03
2.00000000e-03
2.00000000e-03
2.00000000e-03
2.00000000e-03
2.00000000e-03
2.00000000e-03
2.00000000e-03
2.00000000e-03
2.00000000e-03
2.00000000e-03
2.00000000e-03
2.00000000e-03
2.00000000e-03
2.00000000e-03
2.00000000e-03
2.00000000e-03
2.00000000e-03
2.00000000e-03
2.00000000e-03
2.00000000e-03
2.00000000e-03
2.00000000e-03
2.00000000e-03
2.00000000e-03
2.00000000e-03
2.00000000e-03
2.00000000e-03
2.00000000e-03
2.00000000e-03
2.00000000e-03
2.00000000e-03
2.00000000e-03
2.00000000e-03
2.00000000e-03
2.00000000e-03
2.00000000e-03
2.00000000e-03
2.00000000e-03
2.00000000e-03
2.00000000e-03
2.00000000e-03
2.00000000e-03
2.00000000e-03
2.00000000e-03
2.00000000e-03
2.00000000e-03
2.00000000e-03
2.00000000e-03
2.00000000e-03
2.00000000e-03
2.00000000e-03
2.00000000e-03
2.00000000e-03
2.00000000e-03
2.00000000e-03
2.00000000e-03
2.00000000e-03
2.00000000e-03
2.00000000e-03
2.00000000e-03
2.00000000e-03
2.00000000e-03
2.00000000e-03
2.00000000e-03
2.00000000e-03
2.00000000e-03
2.00000000e-03
2.00000000e-03
2.00000000e-03
2.00000000e-03
2.00000000e-03
2.00000000e-03
2.00000000e-03
2.00000000e-03
2.00000000e-03
2.00000000e-03
2.00000000e-03
2.00000000e-03
2.00000000e-03
2.00000000e-03
2.00000000e-03
2.00000000e-03
2.00000000e-03
2.00000000e-03
2.00000000e-03
2.00000000e-03
2.00000000e-03
2.00000000e-03
2.00000000e-03
2.00000000e-03
2.00000000e-03
2.00000000e-03
2.00000000e-03
2.00000000e-03
2.00000000e-03
2.00000000e-03
2.00000000e-03
2.00000000e-03
2.00000000e-03
2.00000000e-03
2.00000000e-03
2.00000000e-03
2.00000000e-03
2.00000000e-03
2.00000000e-03
2.00000000e-03
2.00000000e-03
2.00000000e-03
2.00000000e-03
2.00000000e-03
2.00000000e-03
2.00000000e-03
2.00000000e-03
2.00000000e-03
2.00000000e-03
2.00000000e-03
2.00000000e-03
2.00000000e-03
2.00000000e-03
2.00000000e-03
2.00000000e-03
2.00000000e-03
2.00000000e-03
2.00000000e-03
2.00000000e-03
2.00000000e-03
2.00000000e-03
2.00000000e-03
2.00000000e-03
2.00000000e-03
2.00000000e-03
2.00000000e-03
2.00000000e-03
2.00000000e-03
2.00000000e-03
2.00000000e-03
2.00000000e-03
2.00000000e-03
2.00000000e-03
2.00000000e-03
2.00000000e-03
2.00000000e-03
2.00000000e-03
2.00000000e-03
2.00000000e-03
2.00000000e-03
2.00000000e-03
2.00000000e-03
2.00000000e-03
2.00000000e-03
2.00000000e-03
2.00000000e-03
2.00000000e-03
2.00000000e-03
2.00000000e-03
2.00000000e-03
2.00000000e-03
2.00000000e-03
2.00000000e-03
2.00000000e-03
2.00000000e-03
2.00000000e-03
2.00000000e-03
2.00000000e-03
2.00000000e-03
2.00000000e-03
2.00000000e-03
2.00000000e-03
2.00000000e-03
2.00000000e-03
2.00000000e-03
2.00000000e-03
2.00000000e-03
2.00000000e-03
2.00000000e-03
2.00000000e-03
2.00000000e-03
2.00000000e-03
2.00000000e-03
2.00000000e-03
2.00000000e-03
2.00000000e-03
2.00000000e-03
2.00000000e-03
2.00000000e-03
2.00000000e-03
2.00000000e-03
2.00000000e-03
2.00000000e-03
2.00000000e-03
2.00000000e-03
2.00000000e-03
2.00000000e-03
2.00000000e-03
2.00000000e-03
2.00000000e-03
2.00000000e-03
2.00000000e-03
2.00000000e-03
2.00000000e-03
2.00000000e-03
2.00000000e-03
2.00000000e-03
2.00000000e-03
2.00000000e-03
2.00000000e-03
2.00000000e-03
2.00000000e-03
2.00000000e-03
2.00000000e-03
2.00000000e-03
2.00000000e-03
2.00000000e-03
2.00000000e-03
2.00000000e-03
2.00000000e-03
2.00000000e-03
2.00000000e-03
2.00000000e-03
2.00000000e-03
2.00000000e-03
2.00000000e-03
2.00000000e-03
2.00000000e-03
2.00000000e-03
2.00000000e-03
2.00000000e-03
2.00000000e-03
2.00000000e-03
2.00000000e-03
2.00000000e-03
2.00000000e-03
2.00000000e-03
2.00000000e-03
2.00000000e-03
2.00000000e-03
2.00000000e-03
2.00000000e-03
2.00000000e-03
2.00000000e-03
2.00000000e-03
2.00000000e-03
2.00000000e-03
2.00000000e-03
2.00000000e-03
2.00000000e-03
2.00000000e-03
2.00000000e-03
2.00000000e-03
2.00000000e-03
2.00000000e-03
2.00000000e-03
2.00000000e-03
2.00000000e-03
2.00000000e-03
2.00000000e-03
2.00000000e-03
2.00000000e-03
2.00000000e-03
2.00000000e-03
2.00000000e-03
2.00000000e-03
2.00000000e-03
