# vtk DataFile Version 2.0
Particle data
ASCII
DATASET POLYDATA
POINTS 469 double
1.14985000e-02	-3.46161000e-02	1.45182000e-02
1.25919000e-02	-2.58839000e-02	1.36145000e-02
-1.07393000e-02	-3.57616000e-02	1.16294000e-02
3.18369000e-02	-8.98409000e-03	8.27741000e-03
1.75267000e-02	-2.41913000e-02	2.32600000e-03
2.43728000e-03	-3.65202000e-02	2.66556000e-03
-6.56504000e-04	-3.99793000e-02	1.80535000e-02
2.94978000e-02	-4.10970000e-03	1.81001000e-02
7.46803000e-03	-1.03129000e-02	1.75669000e-02
3.80030000e-02	2.27916000e-03	1.81002000e-02
1.48043000e-02	-3.34717000e-02	7.32376000e-03
7.09773000e-03	-2.71330000e-02	1.81002000e-02
2.51312000e-02	8.69648000e-03	1.00377000e-02
1.22185000e-02	-2.04611000e-02	6.67756000e-03
1.77902000e-02	-3.00736000e-02	1.47290000e-02
3.96196000e-02	-4.98587000e-03	1.09470000e-02
2.45089000e-02	-6.71989000e-03	5.98691000e-03
5.90848000e-03	-2.41182000e-02	2.02405000e-03
2.68746000e-02	-5.21172000e-03	1.31411000e-02
9.73102000e-03	-3.87576000e-02	4.83168000e-03
1.95597000e-02	-3.09431000e-02	1.99914000e-03
1.24936000e-02	5.74287000e-03	1.74785000e-02
3.81626000e-02	-1.17806000e-02	2.00291000e-03
-2.16928000e-03	-3.17028000e-02	5.80113000e-03
3.15663000e-03	-2.58862000e-02	4.32663000e-03
3.62925000e-02	1.54240000e-03	9.57657000e-03
2.77727000e-02	-2.87768000e-02	1.50228000e-02
2.62956000e-03	-2.67229000e-02	1.57765000e-02
3.27086000e-02	-1.61705000e-02	1.18291000e-02
2.56161000e-02	-2.03140000e-03	1.52153000e-02
9.11036000e-03	-3.01645000e-02	8.45660000e-03
-1.15466000e-02	-3.22458000e-02	6.88368000e-03
2.76255000e-03	-3.10321000e-02	7.76281000e-03
1.33959000e-02	-7.48523000e-03	1.80986000e-02
3.76584000e-02	1.20898000e-02	1.03484000e-02
8.58851000e-03	-2.26150000e-02	1.05189000e-02
9.88129000e-03	-3.87104000e-02	9.61058000e-03
3.30904000e-02	-2.23321000e-02	9.90596000e-03
6.77164000e-03	-3.07670000e-02	1.32247000e-02
1.25366000e-02	-3.13738000e-02	4.78316000e-03
3.07785000e-02	-1.96734000e-02	1.17967000e-02
-2.01729000e-03	-3.08235000e-02	1.66401000e-02
3.80534000e-02	1.23076000e-02	2.68746000e-03
1.35389000e-02	-3.37632000e-02	1.80005000e-02
2.46486000e-02	1.20290000e-03	1.26890000e-02
1.98727000e-02	-3.00518000e-02	1.13141000e-02
1.71364000e-02	-2.16918000e-02	9.25190000e-03
2.58267000e-02	-2.54910000e-02	1.38341000e-02
2.52076000e-02	-1.00974000e-02	1.03695000e-02
1.68860000e-02	-3.62471000e-02	1.81000000e-02
2.94132000e-02	-3.84247000e-03	1.99972000e-03
1.95063000e-02	-1.85404000e-02	8.04338000e-03
3.08528000e-02	-2.53130000e-02	1.17894000e-02
2.57248000e-02	-6.52358000e-03	2.18142000e-03
3.57483000e-02	-3.74272000e-03	1.18278000e-02
3.23857000e-02	-9.98476000e-03	1.50690000e-02
3.99327000e-02	-1.81942000e-05	9.01942000e-03
2.21617000e-02	-2.55918000e-02	1.80646000e-02
3.13982000e-02	9.72157000e-03	1.42046000e-02
3.03647000e-02	5.85594000e-03	1.42848000e-02
2.83182000e-02	9.46105000e-03	1.72776000e-02
1.64010000e-02	-8.57368000e-03	1.24157000e-02
2.16856000e-02	-9.64119000e-03	1.81000000e-02
3.56003000e-02	-1.02991000e-02	8.60471000e-03
9.01154000e-03	-1.60184000e-02	6.17260000e-03
1.92847000e-02	-2.82244000e-02	5.48535000e-03
3.91785000e-02	7.87057000e-03	3.17855000e-03
6.62351000e-03	-2.68756000e-02	1.41370000e-02
3.53803000e-02	3.81367000e-03	5.97321000e-03
2.56426000e-02	1.40210000e-02	8.28465000e-03
3.01130000e-02	-1.92046000e-02	7.87583000e-03
1.11618000e-02	5.94156000e-03	2.00505000e-03
1.31866000e-02	-3.77433000e-02	1.78300000e-02
1.44709000e-02	-3.72757000e-02	1.40710000e-02
-1.51292000e-02	-3.69920000e-02	3.82232000e-03
2.91779000e-02	-1.77560000e-02	1.81000000e-02
2.25724000e-02	-1.00945000e-02	5.06026000e-03
4.60123000e-03	-3.97238000e-02	6.33262000e-03
2.82012000e-02	1.94364000e-02	1.81001000e-02
3.96533000e-02	-5.19446000e-03	1.80985000e-02
2.45438000e-02	-2.42673000e-02	9.07437000e-03
2.12252000e-02	-8.15565000e-03	8.28899000e-03
2.06593000e-02	-4.34344000e-03	7.21835000e-03
1.65456000e-02	-4.66491000e-03	1.81008000e-02
2.70255000e-02	1.00018000e-02	2.35311000e-03
1.96910000e-02	-3.47964000e-02	3.06056000e-03
1.20574000e-02	-2.39590000e-02	1.80946000e-02
3.89308000e-02	-8.91620000e-03	1.06717000e-02
2.30284000e-02	6.35525000e-03	7.30705000e-03
3.12405000e-02	3.77600000e-03	3.75136000e-03
2.51314000e-02	-3.10852000e-02	1.05562000e-02
1.65911000e-02	-3.10674000e-02	4.67591000e-03
-1.29428000e-03	-1.69981000e-02	1.02388000e-02
2.71273000e-02	-2.93849000e-02	2.63576000e-03
4.23490000e-03	-2.88664000e-02	1.07855000e-02
-6.56609000e-03	-2.86286000e-02	9.63655000e-03
3.84625000e-02	-1.06851000e-02	5.83778000e-03
3.59577000e-02	3.71257000e-03	1.29195000e-02
8.64531000e-03	-1.51727000e-02	1.80381000e-02
6.08464000e-03	-3.25553000e-02	9.51652000e-03
3.13883000e-02	9.54242000e-04	6.58173000e-03
3.14873000e-02	2.10172000e-03	1.08368000e-02
3.23142000e-02	-1.79648000e-02	1.54760000e-02
2.11003000e-02	1.03518000e-02	1.77525000e-02
3.04019000e-02	4.69931000e-03	7.58031000e-03
2.18771000e-02	-3.34090000e-02	1.04722000e-02
1.49953000e-02	-1.28261000e-02	9.71055000e-03
2.66790000e-02	-3.36808000e-03	5.75227000e-03
3.60929000e-02	5.60474000e-03	2.02082000e-03
1.27954000e-02	-2.87009000e-02	8.99009000e-03
3.68330000e-02	-1.26664000e-03	1.99956000e-03
2.24697000e-02	-2.95796000e-02	1.80574000e-02
2.51195000e-02	-2.01870000e-02	1.74816000e-02
3.29724000e-02	-5.69870000e-03	1.99947000e-03
2.33523000e-02	6.14093000e-03	1.48510000e-02
2.96405000e-02	6.99593000e-03	1.99973000e-03
2.40149000e-02	-3.19628000e-02	1.51610000e-02
3.99551000e-02	-1.59506000e-03	5.34425000e-03
1.31448000e-02	-2.40828000e-02	5.25556000e-03
-6.60444000e-03	-3.80762000e-02	1.99998000e-03
2.11808000e-02	-2.57846000e-02	1.99894000e-03
2.11572000e-02	-2.12893000e-03	1.44348000e-02
4.58258000e-03	-3.97015000e-02	1.70560000e-02
3.33159000e-02	1.55060000e-02	6.09196000e-03
1.62165000e-02	8.29379000e-03	1.80435000e-02
2.04345000e-02	-3.43522000e-02	1.41935000e-02
-5.74924000e-04	-3.77133000e-02	5.10645000e-03
4.33419000e-03	-3.79136000e-02	1.23637000e-02
3.27225000e-02	-1.18856000e-02	1.08843000e-02
2.50566000e-02	-1.99117000e-02	1.99929000e-03
3.10705000e-02	-9.42361000e-03	1.99928000e-03
1.65815000e-02	6.43146000e-03	6.57768000e-03
1.87379000e-02	-2.81409000e-02	1.81001000e-02
-2.60387000e-03	-3.73553000e-02	8.63356000e-03
1.50970000e-02	-1.76838000e-02	5.84560000e-03
3.31330000e-02	1.55227000e-02	1.32776000e-02
5.38081000e-03	-2.76411000e-02	7.15521000e-03
5.56784000e-04	-3.99868000e-02	1.99987000e-03
2.36502000e-02	-2.34146000e-03	1.11244000e-02
2.87233000e-02	-7.92073000e-03	1.54308000e-02
2.72765000e-02	4.97055000e-03	1.80765000e-02
1.67618000e-02	-3.62292000e-02	1.09635000e-02
2.22749000e-02	-1.54981000e-02	1.25931000e-02
3.05154000e-02	-2.57993000e-02	2.44976000e-03
4.73754000e-03	-3.57569000e-02	5.84734000e-03
1.36794000e-02	-3.75619000e-02	2.70327000e-03
3.91965000e-02	-7.91749000e-03	1.99906000e-03
9.72706000e-03	-3.19725000e-02	1.99990000e-03
1.79409000e-02	-1.55212000e-02	1.01487000e-02
3.26657000e-02	2.24848000e-03	1.46564000e-02
2.09127000e-02	-2.14341000e-02	1.81005000e-02
1.83164000e-02	-1.06024000e-02	9.54139000e-03
2.49592000e-03	-3.65449000e-02	9.06483000e-03
2.17550000e-02	-2.51772000e-02	1.19691000e-02
2.77064000e-02	-7.48855000e-03	8.26375000e-03
3.39545000e-02	-6.33493000e-03	1.46044000e-02
-1.35667000e-03	-3.53188000e-02	1.99971000e-03
1.77276000e-02	-2.06075000e-02	5.11738000e-03
2.54999000e-02	1.47796000e-02	1.51203000e-02
7.77439000e-03	-2.97163000e-02	4.71390000e-03
4.85397000e-03	-1.87806000e-02	1.01762000e-02
6.16805000e-03	-3.95128000e-02	2.00248000e-03
3.01426000e-02	1.44250000e-02	8.68303000e-03
3.36324000e-02	-1.41859000e-02	1.81006000e-02
2.02040000e-02	-5.66318000e-03	3.18936000e-03
1.01620000e-02	-2.88652000e-02	1.22828000e-02
2.82068000e-02	-1.00972000e-02	4.94443000e-03
4.62418000e-04	-3.99007000e-02	8.29045000e-03
3.51806000e-02	-1.04993000e-02	1.80185000e-02
3.93587000e-02	-6.80905000e-03	6.25098000e-03
-6.95399000e-03	-3.93560000e-02	1.61501000e-02
3.58201000e-02	5.71935000e-03	9.46235000e-03
2.74512000e-02	-2.33773000e-02	1.81002000e-02
1.08606000e-02	-2.75522000e-02	1.68108000e-02
8.48089000e-03	-3.90810000e-02	1.81014000e-02
-1.20075000e-02	-3.80777000e-02	8.56023000e-03
1.05624000e-02	-8.30080000e-03	2.00042000e-03
1.97377000e-02	6.66940000e-03	1.69054000e-02
-2.63871000e-03	-2.89480000e-02	1.28988000e-02
-6.42190000e-03	-3.24447000e-02	7.73715000e-03
3.19149000e-02	-1.68769000e-02	5.03928000e-03
2.65902000e-02	4.68339000e-03	5.98083000e-03
2.17941000e-02	-3.35215000e-02	1.81001000e-02
3.59668000e-02	-1.73509000e-02	1.39658000e-02
1.05905000e-02	-1.22910000e-02	1.52455000e-02
-9.54294000e-04	-3.26188000e-02	1.31224000e-02
2.09034000e-02	-1.82695000e-02	1.99967000e-03
5.83150000e-03	-2.24029000e-02	1.39614000e-02
9.86040000e-03	-3.53283000e-02	1.80964000e-02
-4.35827000e-04	-3.07520000e-02	2.01080000e-03
3.69470000e-02	-3.57239000e-03	1.56401000e-02
1.69554000e-02	-8.36652000e-03	1.64317000e-02
3.84196000e-02	-1.11209000e-02	1.45363000e-02
3.09997000e-02	-2.52198000e-02	1.79882000e-02
1.43254000e-02	-2.18157000e-02	2.00013000e-03
2.93156000e-02	-1.06867000e-02	1.26030000e-02
1.18588000e-02	-7.40261000e-03	1.08715000e-02
2.82351000e-02	-3.77907000e-03	9.66320000e-03
2.38661000e-02	-1.36541000e-02	6.34517000e-03
3.53737000e-02	5.29282000e-03	1.81007000e-02
2.29317000e-02	-2.82124000e-02	1.42923000e-02
2.30749000e-02	-2.28556000e-02	1.50504000e-02
3.89372000e-02	-9.12918000e-03	1.81002000e-02
1.64008000e-02	3.85129000e-03	1.00788000e-02
3.59388000e-02	-2.17946000e-04	1.37087000e-02
2.57800000e-02	-2.06078000e-02	7.85756000e-03
2.86061000e-02	-1.72748000e-02	1.41449000e-02
3.23887000e-02	-2.18047000e-02	5.86102000e-03
9.33469000e-03	-2.41026000e-02	1.51164000e-02
2.91197000e-02	-1.44749000e-02	1.13360000e-02
3.65252000e-02	1.35674000e-02	1.40947000e-02
2.70609000e-02	3.57132000e-03	2.10899000e-03
3.45671000e-02	9.28636000e-03	1.13751000e-02
2.69433000e-02	7.91483000e-03	1.38476000e-02
1.71357000e-02	-2.05406000e-02	1.54117000e-02
1.08058000e-02	-1.94193000e-02	2.10894000e-03
[...]
POINT_DATA 469
SCALARS Radius double 1
LOOKUP_TABLE default
2.00000000e-03
2.00000000e-03
2.00000000e-03
2.00000000e-03
2.00000000e-03
2.00000000e-03
2.00000000e-03
2.00000000e-03
2.00000000e-03
2.00000000e-03
2.00000000e-03
2.00000000e-03
2.00000000e-03
2.00000000e-03
2.00000000e-03
2.00000000e-03
2.00000000e-03
2.00000000e-03
2.00000000e-03
2.00000000e-03
2.00000000e-03
2.00000000e-03
2.00000000e-03
2.00000000e-03
2.00000000e-03
2.00000000e-03
2.00000000e-03
2.00000000e-03
2.00000000e-03
2.00000000e-03
2.00000000e-03
2.00000000e-03
2.00000000e-03
2.00000000e-03
2.00000000e-03
2.00000000e-03
2.00000000e-03
2.00000000e-03
2.00000000e-03
2.00000000e-03
2.00000000e-03
2.00000000e-03
2.00000000e-03
2.00000000e-03
2.00000000e-03
2.00000000e-03
2.00000000e-03
2.00000000e-03
2.00000000e-03
2.00000000e-03
2.00000000e-03
2.00000000e-03
2.00000000e-03
2.00000000e-03
2.00000000e-03
2.00000000e-03
2.00000000e-03
2.00000000e-03
2.00000000e-03
2.00000000e-03
2.00000000e-03
2.00000000e-03
2.00000000e-03
2.00000000e-03
2.00000000e-03
2.00000000e-03
2.00000000e-03
2.00000000e-03
2.00000000e-03
2.00000000e-03
2.00000000e-03
2.00000000e-03
2.00000000e-03
2.00000000e-03
2.00000000e-03
2.00000000e-03
2.00000000e-03
2.00000000e-03
2.00000000e-03
2.00000000e-03
2.00000000e-03
2.00000000e-03
2.00000000e-03
2.00000000e-03
2.00000000e-03
2.00000000e-03
2.00000000e-03
2.00000000e-03
2.00000000e-03
2.00000000e-03
2.00000000e-03
2.00000000e-03
2.00000000e-03
2.00000000e-03
2.00000000e-03
2.00000000e-03
2.00000000e-03
2.00000000e-03
2.00000000e-03
2.00000000e-03
2.00000000e-03
2.00000000e-03
2.00000000e-03
2.00000000e-03
2.00000000e-03
2.00000000e-03
2.00000000e-03
2.00000000e-03
2.00000000e-03
2.00000000e-03
2.00000000e-03
2.00000000e-03
2.00000000e-03
2.00000000e-03
2.00000000e-03
2.00000000e-03
2.00000000e-03
2.00000000e-03
2.00000000e-03
2.00000000e-03
2.00000000e-03
2.00000000e-03
2.00000000e-03
2.00000000e-03
2.00000000e-03
2.00000000e-03
2.00000000e-03
2.00000000e-03
2.00000000e-03
2.00000000e-03
2.00000000e-03
2.00000000e-03
2.00000000e-03
2.00000000e-03
2.00000000e-03
2.00000000e-03
2.00000000e-03
2.00000000e-03
2.00000000e-03
2.00000000e-03
2.00000000e-03
2.00000000e-03
2.00000000e-03
2.00000000e-03
2.00000000e-03
2.00000000e-03
2.00000000e-03
2.00000000e-03
2.00000000e-03
2.00000000e-03
2.00000000e-03
2.00000000e-03
2.00000000e-03
2.00000000e-03
2.00000000e-03
2.00000000e-03
2.00000000e-03
2.00000000e-03
2.00000000e-03
2.00000000e-03
2.00000000e-03
2.00000000e-03
2.00000000e-03
2.00000000e-03
2.00000000e-03
2.00000000e-03
2.00000000e-03
2.00000000e-03
2.00000000e-03
2.00000000e-03
2.00000000e-03
2.00000000e-03
2.00000000e-03
2.00000000e-03
2.00000000e-03
2.00000000e-03
2.00000000e-03
2.00000000e-03
2.00000000e-03
2.00000000e-03
2.00000000e-03
2.00000000e-03
2.00000000e-03
2.00000000e-03
2.00000000e-03
2.00000000e-03
2.00000000e-03
2.00000000e-03
2.00000000e-03
2.00000000e-03
2.00000000e-03
2.00000000e-03
2.00000000e-03
2.00000000e-03
2.00000000e-03
2.00000000e-03
2.00000000e-03
2.00000000e-03
2.00000000e-03
2.00000000e-03
2.00000000e-03
2.00000000e-03
2.00000000e-03
2.00000000e-03
2.00000000e-03
2.00000000e-03
2.00000000e-03
2.00000000e-03
2.00000000e-03
2.00000000e-03
2.00000000e-03
2.00000000e-03
2.00000000e-03
2.00000000e-03
2.00000000e-03
2.00000000e-03
2.00000000e-03
2.00000000e-03
2.00000000e-03
2.00000000e-03
2.00000000e-03
2.00000000e-03
2.00000000e-03
2.00000000e-03
2.00000000e-03
2.00000000e-03
2.00000000e-03
2.00000000e-03
2.00000000e-03
2.00000000e-03
2.00000000e-03
2.00000000e-03
2.00000000e-03
2.00000000e-03
2.00000000e-03
2.00000000e-03
2.00000000e-03
2.00000000e-03
2.00000000e-03
2.00000000e-03
2.00000000e-03
2.00000000e-03
2.00000000e-03
2.00000000e-03
2.00000000e-03
2.00000000e-03
2.00000000e-03
2.00000000e-03
2.00000000e-03
2.00000000e-03
2.00000000e-03
2.00000000e-03
2.00000000e-03
2.00000000e-03
2.00000000e-03
2.00000000e-03
2.00000000e-03
2.00000000e-03
2.00000000e-03
2.00000000e-03
2.00000000e-03
2.00000000e-03
2.00000000e-03
2.00000000e-03
2.00000000e-03
2.00000000e-03
2.00000000e-03
2.00000000e-03
2.00000000e-03
2.00000000e-03
2.00000000e-03
2.00000000e-03
2.00000000e-03
2.00000000e-03
2.00000000e-03
2.00000000e-03
2.00000000e-03
2.00000000e-03
2.00000000e-03
2.00000000e-03
2.00000000e-03
2.00000000e-03
2.00000000e-03
2.00000000e-03
2.00000000e-03
2.00000000e-03
2.00000000e-03
2.00000000e-03
2.00000000e-03
2.00000000e-03
2.00000000e-03
2.00000000e-03
2.00000000e-03
2.00000000e-03
2.00000000e-03
2.00000000e-03
2.00000000e-03
2.00000000e-03
2.00000000e-03
2.00000000e-03
2.00000000e-03
2.00000000e-03
2.00000000e-03
2.00000000e-03
2.00000000e-03
2.00000000e-03
2.00000000e-03
2.00000000e-03
2.00000000e-03
2.00000000e-03
2.00000000e-03
2.00000000e-03
2.00000000e-03
2.00000000e-03
2.00000000e-03
2.00000000e-03
2.00000000e-03
2.00000000e-03
2.00000000e-03
2.00000000e-03
2.00000000e-03
2.00000000e-03
2.00000000e-03
2.00000000e-03
2.00000000e-03
2.00000000e-03
2.00000000e-03
2.00000000e-03
2.00000000e-03
2.00000000e-03
2.00000000e-03
2.00000000e-03
2.00000000e-03
2.00000000e-03
2.00000000e-03
2.00000000e-03
2.00000000e-03
2.00000000e-03
2.00000000e-03
2.00000000e-03
2.00000000e-03
2.00000000e-03
2.00000000e-03
2.00000000e-03
2.00000000e-03
2.00000000e-03
2.00000000e-03
2.00000000e-03
2.00000000e-03
2.00000000e-03
2.00000000e-03
2.00000000e-03
2.00000000e-03
2.00000000e-03
2.00000000e-03
2.00000000e-03
2.00000000e-03
2.00000000e-03
2.00000000e-03
2.00000000e-03
2.00000000e-03
2.00000000e-03
2.00000000e-03
2.00000000e-03
2.00000000e-03
2.00000000e-03
2.00000000e-03
2.00000000e-03
2.00000000e-03
2.00000000e-03
2.00000000e-03
2.00000000e-03
2.00000000e-03
2.00000000e-03
2.00000000e-03
2.00000000e-03
2.00000000e-03
2.00000000e-03
2.00000000e-03
2.00000000e-03
2.00000000e-03
2.00000000e-03
2.00000000e-03
2.00000000e-03
2.00000000e-03
2.00000000e-03
2.00000000e-03
2.00000000e-03
2.00000000e-03
2.00000000e-03
2.00000000e-03
2.00000000e-03
2.00000000e-03
2.00000000e-03
2.00000000e-03
2.00000000e-03
2.00000000e-03
2.00000000e-03
2.00000000e-03
2.00000000e-03
2.00000000e-03
2.00000000e-03
2.00000000e-03
2.00000000e-03
2.00000000e-03
2.00000000e-03
2.00000000e-03
2.00000000e-03
2.00000000e-03
2.00000000e-03
2.00000000e-03
2.00000000e-03
2.00000000e-03
2.00000000e-03
2.00000000e-03
2.00000000e-03
2.00000000e-03
2.00000000e-03
2.00000000e-03
2.00000000e-03
2.00000000e-03
2.00000000e-03
2.00000000e-03
2.00000000e-03
2.00000000e-03
2.00000000e-03
2.00000000e-03
2.00000000e-03
2.00000000e-03
2.00000000e-03
2.00000000e-03
2.00000000e-03
2.00000000e-03
2.00000000e-03
2.00000000e-03
2.00000000e-03
2.00000000e-03
2.00000000e-03
2.00000000e-03
2.00000000e-03
2.00000000e-03
2.00000000e-03
2.00000000e-03
2.00000000e-03
2.00000000e-03
2.00000000e-03
2.00000000e-03
2.00000000e-03
2.00000000e-03
2.00000000e-03
2.00000000e-03
2.00000000e-03
2.00000000e-03
2.00000000e-03
2.00000000e-03
2.00000000e-03
2.00000000e-03
2.00000000e-03
2.00000000e-03
2.00000000e-03
2.00000000e-03
2.00000000e-03
2.00000000e-03
2.00000000e-03
2.00000000e-03
2.00000000e-03
2.00000000e-03
2.00000000e-03
2.00000000e-03
