# vtk DataFile Version 2.0
Particle data
ASCII
DATASET POLYDATA
POINTS 469 double
1.36219000e-02	-3.38405000e-02	1.45213000e-02
1.40725000e-02	-2.51873000e-02	1.35427000e-02
-1.07683000e-02	-3.84575000e-02	1.37395000e-02
3.23022000e-02	-7.02814000e-03	8.27678000e-03
1.90014000e-02	-2.30460000e-02	2.32717000e-03
4.63277000e-03	-3.62876000e-02	2.67863000e-03
1.84986000e-03	-3.99418000e-02	1.80567000e-02
2.96022000e-02	-2.34543000e-03	1.80959000e-02
3.35405000e-05	-1.88978000e-02	1.78734000e-02
3.77799000e-02	4.60203000e-03	1.81004000e-02
1.68636000e-02	-3.24814000e-02	7.31843000e-03
8.53130000e-03	-2.68561000e-02	1.81001000e-02
2.30056000e-02	5.74775000e-03	1.08105000e-02
1.30297000e-02	-1.98337000e-02	6.57785000e-03
1.95311000e-02	-2.89027000e-02	1.47137000e-02
3.98720000e-02	-2.59628000e-03	1.09185000e-02
2.47145000e-02	-5.42464000e-03	6.05627000e-03
6.82441000e-03	-2.44518000e-02	2.08408000e-03
2.67633000e-02	-4.50534000e-03	1.26415000e-02
1.21378000e-02	-3.80724000e-02	4.83214000e-03
2.14591000e-02	-2.96555000e-02	1.99896000e-03
8.31700000e-03	-2.57127000e-03	1.70771000e-02
3.88194000e-02	-9.39306000e-03	1.99936000e-03
-4.39498000e-03	-3.62141000e-02	5.27811000e-03
3.46998000e-03	-2.75386000e-02	4.70512000e-03
3.61210000e-02	3.73524000e-03	9.57312000e-03
2.94147000e-02	-2.70855000e-02	1.49748000e-02
3.50952000e-03	-2.71968000e-02	1.71722000e-02
3.36417000e-02	-1.41150000e-02	1.18340000e-02
2.52385000e-02	-1.83074000e-03	1.52595000e-02
1.09193000e-02	-2.95405000e-02	8.46997000e-03
-1.56496000e-02	-3.49534000e-02	7.21700000e-03
4.56577000e-03	-3.09112000e-02	7.84426000e-03
1.12502000e-02	-9.32884000e-03	1.80218000e-02
3.66116000e-02	1.42924000e-02	1.04421000e-02
9.56330000e-03	-2.25292000e-02	1.15469000e-02
1.22702000e-02	-3.80193000e-02	9.59015000e-03
3.44219000e-02	-2.02227000e-02	9.90958000e-03
8.50611000e-03	-3.03849000e-02	1.33326000e-02
1.44589000e-02	-3.05347000e-02	4.78358000e-03
3.19350000e-02	-1.77351000e-02	1.18089000e-02
-3.73953000e-04	-3.10495000e-02	1.65265000e-02
3.72754000e-02	1.44914000e-02	2.72750000e-03
1.55964000e-02	-3.28525000e-02	1.80175000e-02
2.33033000e-02	1.68230000e-03	1.35325000e-02
2.16851000e-02	-2.87751000e-02	1.13457000e-02
1.83848000e-02	-2.06435000e-02	9.28998000e-03
2.72539000e-02	-2.39582000e-02	1.37303000e-02
2.54325000e-02	-8.67051000e-03	1.02393000e-02
1.91153000e-02	-3.51221000e-02	1.81000000e-02
2.94905000e-02	-2.11913000e-03	1.99992000e-03
2.05259000e-02	-1.73433000e-02	8.09906000e-03
3.23360000e-02	-2.33880000e-02	1.18172000e-02
2.60708000e-02	-5.08482000e-03	2.14879000e-03
3.59012000e-02	-1.56067000e-03	1.18231000e-02
3.29250000e-02	-7.97029000e-03	1.50678000e-02
3.98616000e-02	2.42576000e-03	9.03286000e-03
2.35716000e-02	-2.41995000e-02	1.80599000e-02
2.93632000e-02	1.04864000e-02	1.41506000e-02
2.92092000e-02	6.49844000e-03	1.44189000e-02
2.66765000e-02	9.90552000e-03	1.75004000e-02
1.55162000e-02	-1.13360000e-02	1.28709000e-02
2.19074000e-02	-8.34904000e-03	1.80817000e-02
3.61635000e-02	-8.11107000e-03	8.60364000e-03
9.62243000e-03	-1.66390000e-02	5.79694000e-03
2.10041000e-02	-2.69666000e-02	5.47981000e-03
3.86435000e-02	1.01745000e-02	3.15955000e-03
7.63940000e-03	-2.65782000e-02	1.42015000e-02
3.50245000e-02	5.92930000e-03	5.96541000e-03
2.23744000e-02	8.33934000e-03	7.82768000e-03
3.12355000e-02	-1.73216000e-02	7.89332000e-03
7.07623000e-03	-2.58306000e-03	2.04505000e-03
1.55160000e-02	-3.68471000e-02	1.78403000e-02
1.67212000e-02	-3.63256000e-02	1.40560000e-02
-1.35891000e-02	-3.75905000e-02	3.36939000e-03
2.92704000e-02	-1.64218000e-02	1.81000000e-02
2.29455000e-02	-8.87937000e-03	5.09213000e-03
7.05705000e-03	-3.93590000e-02	6.33983000e-03
2.54025000e-02	1.70553000e-02	1.80991000e-02
3.98930000e-02	-2.74805000e-03	1.81001000e-02
2.60559000e-02	-2.28010000e-02	9.16277000e-03
2.13158000e-02	-8.08197000e-03	8.65710000e-03
2.02169000e-02	-4.31221000e-03	7.89258000e-03
1.51203000e-02	-7.15521000e-03	1.81000000e-02
2.45217000e-02	9.23699000e-03	2.36567000e-03
2.18352000e-02	-3.34928000e-02	3.05985000e-03
1.34715000e-02	-2.31573000e-02	1.81015000e-02
3.93988000e-02	-6.55902000e-03	1.06528000e-02
2.03454000e-02	2.49665000e-03	5.66316000e-03
3.08817000e-02	5.62933000e-03	3.74376000e-03
2.69984000e-02	-2.94766000e-02	1.05654000e-02
1.84982000e-02	-2.99751000e-02	4.66758000e-03
-8.34396000e-03	-3.07969000e-02	1.20730000e-02
2.89138000e-02	-2.76288000e-02	2.63392000e-03
5.77147000e-03	-2.86978000e-02	1.09499000e-02
-1.13047000e-02	-3.34278000e-02	1.06509000e-02
3.90472000e-02	-8.29713000e-03	5.83892000e-03
3.56562000e-02	5.88541000e-03	1.29144000e-02
5.70473000e-03	-1.93827000e-02	1.80978000e-02
8.03462000e-03	-3.21627000e-02	9.46566000e-03
3.12278000e-02	2.84239000e-03	6.59174000e-03
3.04808000e-02	2.98673000e-03	1.12144000e-02
3.33509000e-02	-1.59538000e-02	1.54799000e-02
1.66117000e-02	4.62634000e-03	1.73145000e-02
2.96753000e-02	6.36038000e-03	7.69202000e-03
2.38935000e-02	-3.19978000e-02	1.04876000e-02
1.47904000e-02	-1.30593000e-02	9.33480000e-03
2.68468000e-02	-2.05254000e-03	5.77682000e-03
3.56947000e-02	7.73388000e-03	2.00009000e-03
1.45292000e-02	-2.78923000e-02	8.97071000e-03
3.68121000e-02	9.89630000e-04	1.99952000e-03
2.41341000e-02	-2.81594000e-02	1.80503000e-02
2.60951000e-02	-1.89158000e-02	1.75929000e-02
3.31688000e-02	-3.69037000e-03	1.99993000e-03
2.13572000e-02	5.04083000e-03	1.44993000e-02
2.88018000e-02	8.56720000e-03	1.99987000e-03
2.58976000e-02	-3.04574000e-02	1.51538000e-02
3.99776000e-02	8.77693000e-04	5.34699000e-03
1.45188000e-02	-2.32899000e-02	5.22251000e-03
-4.84211000e-03	-3.96870000e-02	2.00991000e-03
2.27490000e-02	-2.44053000e-02	1.99951000e-03
1.95204000e-02	-3.51013000e-03	1.45536000e-02
7.05773000e-03	-3.93371000e-02	1.70565000e-02
3.19106000e-02	1.71749000e-02	6.35237000e-03
1.09221000e-02	4.24092000e-04	1.76390000e-02
2.24267000e-02	-3.30921000e-02	1.41747000e-02
1.67135000e-03	-3.77643000e-02	5.13647000e-03
6.67815000e-03	-3.75797000e-02	1.23749000e-02
3.33842000e-02	-9.86004000e-03	1.08859000e-02
2.62486000e-02	-1.83168000e-02	1.99799000e-03
3.15807000e-02	-7.50335000e-03	1.99984000e-03
1.26599000e-02	-3.64804000e-04	8.44091000e-03
2.03286000e-02	-2.69296000e-02	1.81002000e-02
-2.89189000e-04	-3.74827000e-02	8.77162000e-03
1.58039000e-02	-1.70630000e-02	5.77073000e-03
3.08142000e-02	1.49076000e-02	1.33775000e-02
6.86880000e-03	-2.77021000e-02	7.21935000e-03
3.00277000e-03	-3.98774000e-02	2.00411000e-03
2.23579000e-02	-1.48677000e-03	1.12456000e-02
2.91157000e-02	-6.15419000e-03	1.54253000e-02
2.62283000e-02	5.97609000e-03	1.80988000e-02
1.89788000e-02	-3.51182000e-02	1.09827000e-02
2.31572000e-02	-1.40993000e-02	1.26025000e-02
3.14922000e-02	-2.46365000e-02	2.00460000e-03
6.88855000e-03	-3.53925000e-02	5.85770000e-03
1.60050000e-02	-3.66313000e-02	2.70300000e-03
3.96138000e-02	-5.47384000e-03	1.99919000e-03
1.16913000e-02	-3.13025000e-02	1.99987000e-03
1.84183000e-02	-1.46449000e-02	1.01663000e-02
3.24684000e-02	4.18990000e-03	1.46357000e-02
2.21958000e-02	-2.01289000e-02	1.80986000e-02
1.83962000e-02	-1.07394000e-02	9.30322000e-03
4.72554000e-03	-3.62969000e-02	9.09800000e-03
2.31982000e-02	-2.38223000e-02	1.19672000e-02
2.80198000e-02	-5.83438000e-03	8.27148000e-03
3.42829000e-02	-4.23788000e-03	1.45944000e-02
7.81785000e-04	-3.54495000e-02	1.99921000e-03
1.89293000e-02	-1.94736000e-02	5.11446000e-03
2.20036000e-02	1.09320000e-02	1.65181000e-02
9.56906000e-03	-2.92681000e-02	4.71482000e-03
2.17790000e-03	-2.37433000e-02	9.79004000e-03
7.66303000e-03	-3.92458000e-02	2.02254000e-03
2.87282000e-02	1.42308000e-02	7.61859000e-03
3.44410000e-02	-1.20881000e-02	1.81016000e-02
2.04321000e-02	-4.80278000e-03	3.91118000e-03
1.18170000e-02	-2.83801000e-02	1.23241000e-02
2.87337000e-02	-8.40975000e-03	4.94448000e-03
2.94528000e-03	-3.97964000e-02	8.33819000e-03
3.57576000e-02	-8.31353000e-03	1.80126000e-02
3.97065000e-02	-4.36537000e-03	6.25146000e-03
-4.56466000e-03	-3.97037000e-02	1.61631000e-02
3.53618000e-02	7.86320000e-03	9.45031000e-03
2.86500000e-02	-2.19508000e-02	1.81004000e-02
1.24704000e-02	-2.68129000e-02	1.68273000e-02
1.08997000e-02	-3.84759000e-02	1.81013000e-02
-1.08945000e-02	-3.84545000e-02	9.16861000e-03
9.13797000e-03	-1.14702000e-02	2.11952000e-03
1.64635000e-02	2.24811000e-04	1.56708000e-02
-4.04485000e-03	-3.19451000e-02	1.25358000e-02
-8.25432000e-03	-3.57314000e-02	7.84475000e-03
3.28880000e-02	-1.48870000e-02	5.03489000e-03
2.48964000e-02	5.21988000e-03	6.48297000e-03
2.37806000e-02	-3.21425000e-02	1.80995000e-02
3.69643000e-02	-1.51085000e-02	1.39870000e-02
7.81178000e-03	-1.59373000e-02	1.75174000e-02
6.30437000e-04	-3.25712000e-02	1.29620000e-02
2.19680000e-02	-1.69724000e-02	1.99976000e-03
4.68720000e-03	-2.39399000e-02	1.48935000e-02
1.20179000e-02	-3.46372000e-02	1.80997000e-02
1.12976000e-03	-3.14653000e-02	2.02619000e-03
3.70810000e-02	-1.31355000e-03	1.56371000e-02
1.63143000e-02	-1.08528000e-02	1.71493000e-02
3.90279000e-02	-8.74828000e-03	1.45323000e-02
3.23518000e-02	-2.34592000e-02	1.79671000e-02
1.56077000e-02	-2.09545000e-02	1.99990000e-03
2.99068000e-02	-8.87376000e-03	1.25985000e-02
8.91472000e-03	-1.46075000e-02	1.35488000e-02
2.83307000e-02	-2.13165000e-03	9.75175000e-03
2.45500000e-02	-1.22875000e-02	6.43554000e-03
3.49511000e-02	7.42876000e-03	1.81004000e-02
2.45055000e-02	-2.68116000e-02	1.42802000e-02
2.43531000e-02	-2.15093000e-02	1.50190000e-02
3.94244000e-02	-6.71962000e-03	1.81000000e-02
1.22260000e-02	-4.04739000e-03	1.04263000e-02
3.58669000e-02	1.96981000e-03	1.37024000e-02
2.69701000e-02	-1.90901000e-02	7.94939000e-03
2.96072000e-02	-1.54859000e-02	1.41551000e-02
3.36862000e-02	-1.97423000e-02	5.86192000e-03
1.05079000e-02	-2.37048000e-02	1.52512000e-02
2.99478000e-02	-1.26687000e-02	1.13380000e-02
3.48004000e-02	1.51081000e-02	1.41798000e-02
2.60225000e-02	4.46958000e-03	2.11158000e-03
3.38500000e-02	1.12626000e-02	1.13235000e-02
2.51413000e-02	6.31919000e-03	1.42555000e-02
1.83383000e-02	-1.94415000e-02	1.54103000e-02
1.19931000e-02	-1.87973000e-02	2.02929000e-03
[...]
POINT_DATA 469
SCALARS Radius double 1
LOOKUP_TABLE default
2.00000000e-03
2.00000000e-03
2.00000000e-03
2.00000000e-03
2.00000000e-03
2.00000000e-03
2.00000000e-03
2.00000000e-03
2.00000000e-03
2.00000000e-03
2.00000000e-03
2.00000000e-03
2.00000000e-03
2.00000000e-03
2.00000000e-03
2.00000000e-03
2.00000000e-03
2.00000000e-03
2.00000000e-03
2.00000000e-03
2.00000000e-03
2.00000000e-03
2.00000000e-03
2.00000000e-03
2.00000000e-03
2.00000000e-03
2.00000000e-03
2.00000000e-03
2.00000000e-03
2.00000000e-03
2.00000000e-03
2.00000000e-03
2.00000000e-03
2.00000000e-03
2.00000000e-03
2.00000000e-03
2.00000000e-03
2.00000000e-03
2.00000000e-03
2.00000000e-03
2.00000000e-03
2.00000000e-03
2.00000000e-03
2.00000000e-03
2.00000000e-03
2.00000000e-03
2.00000000e-03
2.00000000e-03
2.00000000e-03
2.00000000e-03
2.00000000e-03
2.00000000e-03
2.00000000e-03
2.00000000e-03
2.00000000e-03
2.00000000e-03
2.00000000e-03
2.00000000e-03
2.00000000e-03
2.00000000e-03
2.00000000e-03
2.00000000e-03
2.00000000e-03
2.00000000e-03
2.00000000e-03
2.00000000e-03
2.00000000e-03
2.00000000e-03
2.00000000e-03
2.00000000e-03
2.00000000e-03
2.00000000e-03
2.00000000e-03
2.00000000e-03
2.00000000e-03
2.00000000e-03
2.00000000e-03
2.00000000e-03
2.00000000e-03
2.00000000e-03
2.00000000e-03
2.00000000e-03
2.00000000e-03
2.00000000e-03
2.00000000e-03
2.00000000e-03
2.00000000e-03
2.00000000e-03
2.00000000e-03
2.00000000e-03
2.00000000e-03
2.00000000e-03
2.00000000e-03
2.00000000e-03
2.00000000e-03
2.00000000e-03
2.00000000e-03
2.00000000e-03
2.00000000e-03
2.00000000e-03
2.00000000e-03
2.00000000e-03
2.00000000e-03
2.00000000e-03
2.00000000e-03
2.00000000e-03
2.00000000e-03
2.00000000e-03
2.00000000e-03
2.00000000e-03
2.00000000e-03
2.00000000e-03
2.00000000e-03
2.00000000e-03
2.00000000e-03
2.00000000e-03
2.00000000e-03
2.00000000e-03
2.00000000e-03
2.00000000e-03
2.00000000e-03
2.00000000e-03
2.00000000e-03
2.00000000e-03
2.00000000e-03
2.00000000e-03
2.00000000e-03
2.00000000e-03
2.00000000e-03
2.00000000e-03
2.00000000e-03
2.00000000e-03
2.00000000e-03
2.00000000e-03
2.00000000e-03
2.00000000e-03
2.00000000e-03
2.00000000e-03
2.00000000e-03
2.00000000e-03
2.00000000e-03
2.00000000e-03
2.00000000e-03
2.00000000e-03
2.00000000e-03
2.00000000e-03
2.00000000e-03
2.00000000e-03
2.00000000e-03
2.00000000e-03
2.00000000e-03
2.00000000e-03
2.00000000e-03
2.00000000e-03
2.00000000e-03
2.00000000e-03
2.00000000e-03
2.00000000e-03
2.00000000e-03
2.00000000e-03
2.00000000e-03
2.00000000e-03
2.00000000e-03
2.00000000e-03
2.00000000e-03
2.00000000e-03
2.00000000e-03
2.00000000e-03
2.00000000e-03
2.00000000e-03
2.00000000e-03
2.00000000e-03
2.00000000e-03
2.00000000e-03
2.00000000e-03
2.00000000e-03
2.00000000e-03
2.00000000e-03
2.00000000e-03
2.00000000e-03
2.00000000e-03
2.00000000e-03
2.00000000e-03
2.00000000e-03
2.00000000e-03
2.00000000e-03
2.00000000e-03
2.00000000e-03
2.00000000e-03
2.00000000e-03
2.00000000e-03
2.00000000e-03
2.00000000e-03
2.00000000e-03
2.00000000e-03
2.00000000e-03
2.00000000e-03
2.00000000e-03
2.00000000e-03
2.00000000e-03
2.00000000e-03
2.00000000e-03
2.00000000e-03
2.00000000e-03
2.00000000e-03
2.00000000e-03
2.00000000e-03
2.00000000e-03
2.00000000e-03
2.00000000e-03
2.00000000e-03
2.00000000e-03
2.00000000e-03
2.00000000e-03
2.00000000e-03
2.00000000e-03
2.00000000e-03
2.00000000e-03
2.00000000e-03
2.00000000e-03
2.00000000e-03
2.00000000e-03
2.00000000e-03
2.00000000e-03
2.00000000e-03
2.00000000e-03
2.00000000e-03
2.00000000e-03
2.00000000e-03
2.00000000e-03
2.00000000e-03
2.00000000e-03
2.00000000e-03
2.00000000e-03
2.00000000e-03
2.00000000e-03
2.00000000e-03
2.00000000e-03
2.00000000e-03
2.00000000e-03
2.00000000e-03
2.00000000e-03
2.00000000e-03
2.00000000e-03
2.00000000e-03
2.00000000e-03
2.00000000e-03
2.00000000e-03
2.00000000e-03
2.00000000e-03
2.00000000e-03
2.00000000e-03
2.00000000e-03
2.00000000e-03
2.00000000e-03
2.00000000e-03
2.00000000e-03
2.00000000e-03
2.00000000e-03
2.00000000e-03
2.00000000e-03
2.00000000e-03
2.00000000e-03
2.00000000e-03
2.00000000e-03
2.00000000e-03
2.00000000e-03
2.00000000e-03
2.00000000e-03
2.00000000e-03
2.00000000e-03
2.00000000e-03
2.00000000e-03
2.00000000e-03
2.00000000e-03
2.00000000e-03
2.00000000e-03
2.00000000e-03
2.00000000e-03
2.00000000e-03
2.00000000e-03
2.00000000e-03
2.00000000e-03
2.00000000e-03
2.00000000e-03
2.00000000e-03
2.00000000e-03
2.00000000e-03
2.00000000e-03
2.00000000e-03
2.00000000e-03
2.00000000e-03
2.00000000e-03
2.00000000e-03
2.00000000e-03
2.00000000e-03
2.00000000e-03
2.00000000e-03
2.00000000e-03
2.00000000e-03
2.00000000e-03
2.00000000e-03
2.00000000e-03
2.00000000e-03
2.00000000e-03
2.00000000e-03
2.00000000e-03
2.00000000e-03
2.00000000e-03
2.00000000e-03
2.00000000e-03
2.00000000e-03
2.00000000e-03
2.00000000e-03
2.00000000e-03
2.00000000e-03
2.00000000e-03
2.00000000e-03
2.00000000e-03
2.00000000e-03
2.00000000e-03
2.00000000e-03
2.00000000e-03
2.00000000e-03
2.00000000e-03
2.00000000e-03
2.00000000e-03
2.00000000e-03
2.00000000e-03
2.00000000e-03
2.00000000e-03
2.00000000e-03
2.00000000e-03
2.00000000e-03
2.00000000e-03
2.00000000e-03
2.00000000e-03
2.00000000e-03
2.00000000e-03
2.00000000e-03
2.00000000e-03
2.00000000e-03
2.00000000e-03
2.00000000e-03
2.00000000e-03
2.00000000e-03
2.00000000e-03
2.00000000e-03
2.00000000e-03
2.00000000e-03
2.00000000e-03
2.00000000e-03
2.00000000e-03
2.00000000e-03
2.00000000e-03
2.00000000e-03
2.00000000e-03
2.00000000e-03
2.00000000e-03
2.00000000e-03
2.00000000e-03
2.00000000e-03
2.00000000e-03
2.00000000e-03
2.00000000e-03
2.00000000e-03
2.00000000e-03
2.00000000e-03
2.00000000e-03
2.00000000e-03
2.00000000e-03
2.00000000e-03
2.00000000e-03
2.00000000e-03
2.00000000e-03
2.00000000e-03
2.00000000e-03
2.00000000e-03
2.00000000e-03
2.00000000e-03
2.00000000e-03
2.00000000e-03
2.00000000e-03
2.00000000e-03
2.00000000e-03
2.00000000e-03
2.00000000e-03
2.00000000e-03
2.00000000e-03
2.00000000e-03
2.00000000e-03
2.00000000e-03
2.00000000e-03
2.00000000e-03
2.00000000e-03
2.00000000e-03
2.00000000e-03
2.00000000e-03
2.00000000e-03
2.00000000e-03
2.00000000e-03
2.00000000e-03
2.00000000e-03
2.00000000e-03
2.00000000e-03
2.00000000e-03
2.00000000e-03
2.00000000e-03
2.00000000e-03
2.00000000e-03
2.00000000e-03
2.00000000e-03
2.00000000e-03
2.00000000e-03
2.00000000e-03
2.00000000e-03
2.00000000e-03
2.00000000e-03
2.00000000e-03
2.00000000e-03
2.00000000e-03
2.00000000e-03
2.00000000e-03
2.00000000e-03
2.00000000e-03
2.00000000e-03
2.00000000e-03
2.00000000e-03
2.00000000e-03
2.00000000e-03
2.00000000e-03
2.00000000e-03
2.00000000e-03
2.00000000e-03
2.00000000e-03
2.00000000e-03
2.00000000e-03
2.00000000e-03
2.00000000e-03
2.00000000e-03
2.00000000e-03
2.00000000e-03
2.00000000e-03
2.00000000e-03
2.00000000e-03
2.00000000e-03
2.00000000e-03
2.00000000e-03
2.00000000e-03
2.00000000e-03
2.00000000e-03
2.00000000e-03
2.00000000e-03
2.00000000e-03
2.00000000e-03
2.00000000e-03
2.00000000e-03
2.00000000e-03
2.00000000e-03
2.00000000e-03
2.00000000e-03
2.00000000e-03
2.00000000e-03
2.00000000e-03
2.00000000e-03
2.00000000e-03
2.00000000e-03
2.00000000e-03
2.00000000e-03
