# vtk DataFile Version 2.0
Particle data
ASCII
DATASET POLYDATA
POINTS 469 double
3.53819000e-02	-7.27008000e-03	1.42572000e-02
2.76525000e-02	-4.50973000e-03	1.29642000e-02
2.49401000e-02	-3.12458000e-02	1.43244000e-02
1.78202000e-02	1.19932000e-03	7.74930000e-03
2.89015000e-02	2.53548000e-03	2.69338000e-03
3.24858000e-02	-1.63512000e-02	2.03364000e-03
3.39471000e-02	-2.11327000e-02	1.79670000e-02
4.71934000e-03	-2.43031000e-02	1.80690000e-02
1.28110000e-02	-3.78669000e-02	1.71342000e-02
-1.76010000e-04	-2.41870000e-02	1.48410000e-02
3.60340000e-02	-3.38432000e-03	7.48216000e-03
2.82549000e-02	-1.09284000e-02	1.80978000e-02
-1.74858000e-03	-3.99248000e-02	7.36145000e-03
2.50385000e-02	-7.05021000e-03	4.19159000e-03
3.36738000e-02	-4.49467000e-04	1.37104000e-02
1.29582000e-02	1.59035000e-03	9.08401000e-03
1.69947000e-02	-1.53514000e-02	7.91746000e-03
2.82604000e-02	-1.70495000e-02	2.45879000e-03
1.71347000e-02	-1.39136000e-02	1.48899000e-02
3.86952000e-02	-9.83957000e-03	4.91075000e-03
3.64091000e-02	1.87637000e-03	1.99977000e-03
1.70870000e-02	-3.21914000e-02	1.80596000e-02
2.53656000e-02	2.21344000e-02	2.46583000e-03
2.53117000e-02	-2.86724000e-02	5.12397000e-03
2.89200000e-02	-2.11376000e-02	5.53573000e-03
-1.60835000e-02	-3.23209000e-02	1.73574000e-02
3.85749000e-02	8.48504000e-03	1.43691000e-02
2.63337000e-02	-2.35779000e-02	1.81004000e-02
2.67493000e-02	1.40932000e-02	1.16406000e-02
2.08432000e-03	-3.23599000e-02	1.81003000e-02
2.96542000e-02	-9.20369000e-03	8.86453000e-03
1.35281000e-02	-3.75650000e-02	9.26192000e-03
2.69995000e-02	-1.35995000e-02	7.94645000e-03
1.89447000e-02	-2.40015000e-02	1.51115000e-02
-2.09027000e-03	-3.59329000e-02	7.32265000e-03
2.13842000e-02	-1.95067000e-02	1.44881000e-02
3.85511000e-02	-1.03133000e-02	9.37698000e-03
3.52522000e-02	1.67412000e-02	1.07729000e-02
3.01890000e-02	-1.34833000e-02	1.41544000e-02
3.29739000e-02	-4.57058000e-03	4.99272000e-03
3.10187000e-02	1.55304000e-02	1.22778000e-02
2.48706000e-02	-2.63742000e-02	1.56437000e-02
8.46636000e-05	-2.83732000e-02	4.24044000e-03
3.63059000e-02	-4.48707000e-03	1.77561000e-02
1.67231000e-02	-2.07267000e-02	1.45305000e-02
3.55961000e-02	2.37250000e-03	1.16287000e-02
2.37973000e-02	-7.40105000e-03	1.29990000e-02
3.43646000e-02	9.15307000e-03	1.32903000e-02
1.89347000e-02	-1.06067000e-02	1.26138000e-02
3.98918000e-02	-2.72140000e-03	1.79022000e-02
1.56511000e-02	-4.62586000e-03	2.68611000e-03
2.40370000e-02	-1.60189000e-03	9.92829000e-03
3.74076000e-02	1.32164000e-02	1.27919000e-02
1.26551000e-02	-1.76367000e-02	2.03078000e-03
2.72006000e-03	-2.52187000e-02	5.23329000e-03
1.39546000e-02	-1.88155000e-03	1.65009000e-02
4.07479000e-03	-1.93814000e-02	8.96698000e-03
3.27758000e-02	6.87798000e-03	1.80909000e-02
7.56828000e-03	-3.01938000e-02	1.45368000e-02
3.40424000e-03	-3.09945000e-02	1.45768000e-02
7.82327000e-03	-3.34946000e-02	1.22950000e-02
2.04965000e-02	-2.33057000e-02	1.14713000e-02
1.33387000e-02	-1.54595000e-02	1.77243000e-02
2.03382000e-02	1.59065000e-02	9.77996000e-03
2.37589000e-02	-2.27509000e-02	3.69267000e-03
3.34420000e-02	2.79750000e-03	5.46029000e-03
-6.51095000e-03	-2.68421000e-02	7.07983000e-03
2.76160000e-02	-1.61867000e-02	1.55926000e-02
7.79881000e-04	-3.05173000e-02	7.54459000e-03
5.62444000e-03	-3.56406000e-02	1.99876000e-03
3.01273000e-02	1.50469000e-02	8.40738000e-03
1.24742000e-02	-3.67816000e-02	5.48470000e-03
3.93252000e-02	-7.23708000e-03	1.77445000e-02
3.94753000e-02	-5.94033000e-03	1.39287000e-02
2.42482000e-02	-3.18064000e-02	2.87915000e-03
2.82586000e-02	1.39516000e-02	1.77564000e-02
5.26951000e-03	-3.57069000e-02	5.98089000e-03
3.68409000e-02	-1.53308000e-02	6.22846000e-03
-2.65302000e-03	-3.98941000e-02	1.77170000e-02
1.46619000e-02	1.27799000e-02	1.69672000e-02
3.30144000e-02	8.71316000e-03	9.42434000e-03
2.19182000e-02	-9.70833000e-03	9.14147000e-03
1.11750000e-02	-2.50647000e-02	7.45826000e-03
1.62523000e-02	-2.28867000e-02	1.78636000e-02
1.07159000e-02	-3.36787000e-02	3.67375000e-03
3.99651000e-02	-5.89838000e-04	2.00012000e-03
2.49849000e-02	-4.50096000e-03	1.81000000e-02
2.48609000e-02	1.75986000e-02	1.12509000e-02
2.04840000e-02	-2.48073000e-02	6.08519000e-03
7.02847000e-03	-2.56755000e-02	5.68827000e-03
3.92272000e-02	6.65130000e-03	1.06830000e-02
3.49932000e-02	-7.91325000e-04	4.62209000e-03
1.96431000e-02	-3.47672000e-02	9.30831000e-03
3.88848000e-02	9.29767000e-03	2.51476000e-03
2.51135000e-02	-1.59713000e-02	1.15155000e-02
9.03600000e-03	-3.89538000e-02	1.78865000e-02
2.75663000e-02	2.37775000e-02	7.39224000e-03
-4.10225000e-03	-3.38267000e-02	1.40787000e-02
1.94704000e-02	-2.70350000e-02	1.04522000e-02
3.10570000e-02	-1.28121000e-02	9.86790000e-03
-2.86578000e-04	-3.35240000e-02	9.95686000e-03
1.46648000e-02	-1.16607000e-02	1.80996000e-02
2.98352000e-02	1.75871000e-02	1.54977000e-02
1.18541000e-02	-3.16505000e-02	1.50801000e-02
1.88002000e-03	-3.60759000e-02	1.66355000e-02
3.97632000e-02	2.69054000e-03	1.08495000e-02
2.01424000e-02	-1.75400000e-02	6.77753000e-03
4.88478000e-03	-3.44487000e-02	9.75642000e-03
1.89874000e-04	-2.50471000e-02	2.02149000e-03
3.15151000e-02	-4.95624000e-03	8.74278000e-03
4.82822000e-03	-1.48034000e-02	7.37895000e-03
3.61707000e-02	4.76045000e-03	1.80997000e-02
2.95948000e-02	1.01964000e-02	1.80998000e-02
1.28776000e-02	-5.57045000e-03	6.87228000e-03
5.36705000e-03	-3.73757000e-02	1.81007000e-02
-3.17960000e-03	-3.45042000e-02	1.99987000e-03
3.94689000e-02	4.58419000e-03	1.43613000e-02
7.32290000e-03	1.14308000e-03	8.55395000e-03
2.49250000e-02	-3.91464000e-03	6.67042000e-03
3.07127000e-02	-2.56125000e-02	2.09154000e-03
3.27920000e-02	4.85602000e-03	2.08627000e-03
1.57461000e-02	-2.94041000e-02	1.22239000e-02
3.71465000e-02	-1.47994000e-02	1.71934000e-02
3.36203000e-04	-3.64090000e-02	2.09305000e-03
1.70097000e-02	-3.61900000e-02	1.81003000e-02
3.98868000e-02	-1.10063000e-03	1.39767000e-02
3.26126000e-02	-1.84929000e-02	5.40942000e-03
3.49707000e-02	-1.46079000e-02	1.21379000e-02
1.65089000e-02	4.08471000e-03	1.20531000e-02
2.84598000e-02	1.07513000e-02	1.99948000e-03
1.87952000e-02	1.05663000e-02	2.00135000e-03
7.29167000e-03	-3.92782000e-02	9.63730000e-03
3.26096000e-02	1.81948000e-04	1.81001000e-02
3.20385000e-02	-2.13807000e-02	8.11616000e-03
2.31731000e-02	-1.33955000e-02	6.80122000e-03
-1.59978000e-03	-3.86579000e-02	1.11642000e-02
2.58655000e-02	-9.92622000e-03	6.84479000e-03
3.48701000e-02	-1.95632000e-02	2.03516000e-03
1.19919000e-02	-3.57548000e-02	1.29309000e-02
1.98535000e-02	-1.57800000e-02	1.73831000e-02
-1.84555000e-03	-3.59956000e-02	1.81002000e-02
3.97308000e-02	-3.71042000e-03	1.06180000e-02
2.12002000e-02	-4.52034000e-03	1.39816000e-02
3.72866000e-02	1.29285000e-02	2.00001000e-03
3.31499000e-02	-1.39115000e-02	5.62568000e-03
3.95254000e-02	-6.05738000e-03	2.70988000e-03
2.08476000e-02	1.79529000e-02	2.15639000e-03
3.22368000e-02	-7.28051000e-03	2.00007000e-03
2.05514000e-02	-1.38385000e-02	9.78958000e-03
-9.74908000e-03	-3.70668000e-02	1.70403000e-02
2.97627000e-02	4.25527000e-03	1.78793000e-02
1.60858000e-02	-2.35550000e-02	8.90759000e-03
3.20143000e-02	-1.66474000e-02	9.26062000e-03
3.16920000e-02	5.73366000e-03	1.18050000e-02
1.59891000e-02	-8.53852000e-03	5.93865000e-03
1.64378000e-03	-1.70884000e-02	1.16920000e-02
3.08969000e-02	-2.00216000e-02	1.99949000e-03
2.45772000e-02	1.45037000e-05	6.01041000e-03
2.28516000e-03	-3.99244000e-02	1.81004000e-02
2.97710000e-02	-8.38001000e-03	4.95222000e-03
2.75556000e-02	-2.44288000e-02	9.16038000e-03
3.66519000e-02	-1.59824000e-02	2.07383000e-03
9.33107000e-03	-2.86008000e-02	7.15101000e-03
2.83873000e-02	2.02570000e-02	1.81012000e-02
1.35900000e-02	-2.21927000e-02	6.07305000e-03
2.96149000e-02	-8.21366000e-03	1.27391000e-02
9.50904000e-03	-1.85965000e-02	6.09088000e-03
3.51890000e-02	-1.89389000e-02	8.44510000e-03
1.87403000e-02	1.50672000e-02	1.78309000e-02
1.82383000e-02	1.70570000e-02	6.22541000e-03
3.05006000e-02	-2.58544000e-02	1.62932000e-02
-1.38689000e-02	-3.74977000e-02	2.42424000e-03
3.34478000e-02	1.12695000e-02	1.80415000e-02
2.81050000e-02	-6.84300000e-03	1.61793000e-02
3.84090000e-02	-1.11141000e-02	1.80992000e-02
2.30284000e-02	-3.26537000e-02	9.57611000e-03
2.00637000e-02	-2.10717000e-02	1.99956000e-03
9.59385000e-03	-3.60105000e-02	9.73996000e-03
2.09624000e-02	-3.16802000e-02	1.50946000e-02
1.85734000e-02	-3.30880000e-02	5.83769000e-03
2.76143000e-02	1.67178000e-02	5.44879000e-03
2.35696000e-02	-1.93491000e-02	5.78783000e-03
3.98582000e-02	3.21017000e-03	1.80999000e-02
3.22536000e-02	2.06620000e-02	1.46637000e-02
2.26068000e-02	-2.07181000e-02	1.81004000e-02
2.84539000e-02	-2.05801000e-02	9.77355000e-03
2.51528000e-02	4.23070000e-03	2.00001000e-03
2.47228000e-02	-2.57446000e-02	1.16581000e-02
3.54118000e-02	-8.36998000e-03	1.81014000e-02
2.73843000e-02	-2.30458000e-02	2.00130000e-03
7.79611000e-03	-1.67329000e-02	1.09493000e-02
1.46288000e-02	-1.92372000e-02	1.80684000e-02
2.86477000e-02	2.27969000e-02	1.50239000e-02
3.79580000e-02	1.24811000e-02	1.78742000e-02
2.56792000e-02	2.65140000e-04	2.01276000e-03
1.14645000e-02	-1.27865000e-02	1.27550000e-02
1.87275000e-02	-2.79403000e-02	1.44516000e-02
1.72454000e-02	-1.99740000e-02	1.02933000e-02
2.09907000e-02	-6.22922000e-03	7.36602000e-03
-2.47208000e-03	-2.94260000e-02	1.48314000e-02
3.53156000e-02	5.38664000e-03	1.42426000e-02
3.04987000e-02	7.91253000e-03	1.49415000e-02
2.29148000e-02	1.85471000e-02	1.80868000e-02
1.57000000e-02	-3.28032000e-02	1.43303000e-02
-2.66806000e-03	-2.71212000e-02	1.80957000e-02
2.84212000e-02	8.43651000e-03	7.92993000e-03
2.44547000e-02	1.18933000e-02	1.45384000e-02
3.42986000e-02	1.15304000e-02	5.81720000e-03
2.62833000e-02	-1.00701000e-02	1.46493000e-02
2.15396000e-02	4.68470000e-03	1.34205000e-02
4.11973000e-04	-3.35601000e-02	1.38947000e-02
8.88801000e-03	-2.00949000e-02	2.40028000e-03
-5.45334000e-03	-3.75689000e-02	1.44851000e-02
1.49473000e-02	-2.93591000e-02	1.62166000e-02
1.93262000e-02	-9.53384000e-03	1.65835000e-02
2.29022000e-02	-1.36855000e-02	2.81778000e-03
[...]
POINT_DATA 469
SCALARS Radius double 1
LOOKUP_TABLE default
2.00000000e-03
2.00000000e-03
2.00000000e-03
2.00000000e-03
2.00000000e-03
2.00000000e-03
2.00000000e-03
2.00000000e-03
2.00000000e-03
2.00000000e-03
2.00000000e-03
2.00000000e-03
2.00000000e-03
2.00000000e-03
2.00000000e-03
2.00000000e-03
2.00000000e-03
2.00000000e-03
2.00000000e-03
2.00000000e-03
2.00000000e-03
2.00000000e-03
2.00000000e-03
2.00000000e-03
2.00000000e-03
2.00000000e-03
2.00000000e-03
2.00000000e-03
2.00000000e-03
2.00000000e-03
2.00000000e-03
2.00000000e-03
2.00000000e-03
2.00000000e-03
2.00000000e-03
2.00000000e-03
2.00000000e-03
2.00000000e-03
2.00000000e-03
2.00000000e-03
2.00000000e-03
2.00000000e-03
2.00000000e-03
2.00000000e-03
2.00000000e-03
2.00000000e-03
2.00000000e-03
2.00000000e-03
2.00000000e-03
2.00000000e-03
2.00000000e-03
2.00000000e-03
2.00000000e-03
2.00000000e-03
2.00000000e-03
2.00000000e-03
2.00000000e-03
2.00000000e-03
2.00000000e-03
2.00000000e-03
2.00000000e-03
2.00000000e-03
2.00000000e-03
2.00000000e-03
2.00000000e-03
2.00000000e-03
2.00000000e-03
2.00000000e-03
2.00000000e-03
2.00000000e-03
2.00000000e-03
2.00000000e-03
2.00000000e-03
2.00000000e-03
2.00000000e-03
2.00000000e-03
2.00000000e-03
2.00000000e-03
2.00000000e-03
2.00000000e-03
2.00000000e-03
2.00000000e-03
2.00000000e-03
2.00000000e-03
2.00000000e-03
2.00000000e-03
2.00000000e-03
2.00000000e-03
2.00000000e-03
2.00000000e-03
2.00000000e-03
2.00000000e-03
2.00000000e-03
2.00000000e-03
2.00000000e-03
2.00000000e-03
2.00000000e-03
2.00000000e-03
2.00000000e-03
2.00000000e-03
2.00000000e-03
2.00000000e-03
2.00000000e-03
2.00000000e-03
2.00000000e-03
2.00000000e-03
2.00000000e-03
2.00000000e-03
2.00000000e-03
2.00000000e-03
2.00000000e-03
2.00000000e-03
2.00000000e-03
2.00000000e-03
2.00000000e-03
2.00000000e-03
2.00000000e-03
2.00000000e-03
2.00000000e-03
2.00000000e-03
2.00000000e-03
2.00000000e-03
2.00000000e-03
2.00000000e-03
2.00000000e-03
2.00000000e-03
2.00000000e-03
2.00000000e-03
2.00000000e-03
2.00000000e-03
2.00000000e-03
2.00000000e-03
2.00000000e-03
2.00000000e-03
2.00000000e-03
2.00000000e-03
2.00000000e-03
2.00000000e-03
2.00000000e-03
2.00000000e-03
2.00000000e-03
2.00000000e-03
2.00000000e-03
2.00000000e-03
2.00000000e-03
2.00000000e-03
2.00000000e-03
2.00000000e-03
2.00000000e-03
2.00000000e-03
2.00000000e-03
2.00000000e-03
2.00000000e-03
2.00000000e-03
2.00000000e-03
2.00000000e-03
2.00000000e-03
2.00000000e-03
2.00000000e-03
2.00000000e-03
2.00000000e-03
2.00000000e-03
2.00000000e-03
2.00000000e-03
2.00000000e-03
2.00000000e-03
2.00000000e-03
2.00000000e-03
2.00000000e-03
2.00000000e-03
2.00000000e-03
2.00000000e-03
2.00000000e-03
2.00000000e-03
2.00000000e-03
2.00000000e-03
2.00000000e-03
2.00000000e-03
2.00000000e-03
2.00000000e-03
2.00000000e-03
2.00000000e-03
2.00000000e-03
2.00000000e-03
2.00000000e-03
2.00000000e-03
2.00000000e-03
2.00000000e-03
2.00000000e-03
2.00000000e-03
2.00000000e-03
2.00000000e-03
2.00000000e-03
2.00000000e-03
2.00000000e-03
2.00000000e-03
2.00000000e-03
2.00000000e-03
2.00000000e-03
2.00000000e-03
2.00000000e-03
2.00000000e-03
2.00000000e-03
2.00000000e-03
2.00000000e-03
2.00000000e-03
2.00000000e-03
2.00000000e-03
2.00000000e-03
2.00000000e-03
2.00000000e-03
2.00000000e-03
2.00000000e-03
2.00000000e-03
2.00000000e-03
2.00000000e-03
2.00000000e-03
2.00000000e-03
2.00000000e-03
2.00000000e-03
2.00000000e-03
2.00000000e-03
2.00000000e-03
2.00000000e-03
2.00000000e-03
2.00000000e-03
2.00000000e-03
2.00000000e-03
2.00000000e-03
2.00000000e-03
2.00000000e-03
2.00000000e-03
2.00000000e-03
2.00000000e-03
2.00000000e-03
2.00000000e-03
2.00000000e-03
2.00000000e-03
2.00000000e-03
2.00000000e-03
2.00000000e-03
2.00000000e-03
2.00000000e-03
2.00000000e-03
2.00000000e-03
2.00000000e-03
2.00000000e-03
2.00000000e-03
2.00000000e-03
2.00000000e-03
2.00000000e-03
2.00000000e-03
2.00000000e-03
2.00000000e-03
2.00000000e-03
2.00000000e-03
2.00000000e-03
2.00000000e-03
2.00000000e-03
2.00000000e-03
2.00000000e-03
2.00000000e-03
2.00000000e-03
2.00000000e-03
2.00000000e-03
2.00000000e-03
2.00000000e-03
2.00000000e-03
2.00000000e-03
2.00000000e-03
2.00000000e-03
2.00000000e-03
2.00000000e-03
2.00000000e-03
2.00000000e-03
2.00000000e-03
2.00000000e-03
2.00000000e-03
2.00000000e-03
2.00000000e-03
2.00000000e-03
2.00000000e-03
2.00000000e-03
2.00000000e-03
2.00000000e-03
2.00000000e-03
2.00000000e-03
2.00000000e-03
2.00000000e-03
2.00000000e-03
2.00000000e-03
2.00000000e-03
2.00000000e-03
2.00000000e-03
2.00000000e-03
2.00000000e-03
2.00000000e-03
2.00000000e-03
2.00000000e-03
2.00000000e-03
2.00000000e-03
2.00000000e-03
2.00000000e-03
2.00000000e-03
2.00000000e-03
2.00000000e-03
2.00000000e-03
2.00000000e-03
2.00000000e-03
2.00000000e-03
2.00000000e-03
2.00000000e-03
2.00000000e-03
2.00000000e-03
2.00000000e-03
2.00000000e-03
2.00000000e-03
2.00000000e-03
2.00000000e-03
2.00000000e-03
2.00000000e-03
2.00000000e-03
2.00000000e-03
2.00000000e-03
2.00000000e-03
2.00000000e-03
2.00000000e-03
2.00000000e-03
2.00000000e-03
2.00000000e-03
2.00000000e-03
2.00000000e-03
2.00000000e-03
2.00000000e-03
2.00000000e-03
2.00000000e-03
2.00000000e-03
2.00000000e-03
2.00000000e-03
2.00000000e-03
2.00000000e-03
2.00000000e-03
2.00000000e-03
2.00000000e-03
2.00000000e-03
2.00000000e-03
2.00000000e-03
2.00000000e-03
2.00000000e-03
2.00000000e-03
2.00000000e-03
2.00000000e-03
2.00000000e-03
2.00000000e-03
2.00000000e-03
2.00000000e-03
2.00000000e-03
2.00000000e-03
2.00000000e-03
2.00000000e-03
2.00000000e-03
2.00000000e-03
2.00000000e-03
2.00000000e-03
2.00000000e-03
2.00000000e-03
2.00000000e-03
2.00000000e-03
2.00000000e-03
2.00000000e-03
2.00000000e-03
2.00000000e-03
2.00000000e-03
2.00000000e-03
2.00000000e-03
2.00000000e-03
2.00000000e-03
2.00000000e-03
2.00000000e-03
2.00000000e-03
2.00000000e-03
2.00000000e-03
2.00000000e-03
2.00000000e-03
2.00000000e-03
2.00000000e-03
2.00000000e-03
2.00000000e-03
2.00000000e-03
2.00000000e-03
2.00000000e-03
2.00000000e-03
2.00000000e-03
2.00000000e-03
2.00000000e-03
2.00000000e-03
2.00000000e-03
2.00000000e-03
2.00000000e-03
2.00000000e-03
2.00000000e-03
2.00000000e-03
2.00000000e-03
2.00000000e-03
2.00000000e-03
2.00000000e-03
2.00000000e-03
2.00000000e-03
2.00000000e-03
2.00000000e-03
2.00000000e-03
2.00000000e-03
2.00000000e-03
2.00000000e-03
2.00000000e-03
2.00000000e-03
2.00000000e-03
2.00000000e-03
2.00000000e-03
2.00000000e-03
2.00000000e-03
2.00000000e-03
2.00000000e-03
2.00000000e-03
2.00000000e-03
2.00000000e-03
2.00000000e-03
2.00000000e-03
2.00000000e-03
2.00000000e-03
2.00000000e-03
2.00000000e-03
2.00000000e-03
2.00000000e-03
2.00000000e-03
2.00000000e-03
2.00000000e-03
2.00000000e-03
2.00000000e-03
2.00000000e-03
2.00000000e-03
2.00000000e-03
2.00000000e-03
2.00000000e-03
2.00000000e-03
2.00000000e-03
2.00000000e-03
2.00000000e-03
2.00000000e-03
2.00000000e-03
2.00000000e-03
2.00000000e-03
2.00000000e-03
2.00000000e-03
2.00000000e-03
2.00000000e-03
2.00000000e-03
2.00000000e-03
2.00000000e-03
2.00000000e-03
2.00000000e-03
2.00000000e-03
2.00000000e-03
2.00000000e-03
2.00000000e-03
2.00000000e-03
2.00000000e-03
2.00000000e-03
2.00000000e-03
