# vtk DataFile Version 2.0
Particle data
ASCII
DATASET POLYDATA
POINTS 469 double
3.64756000e-02	-8.79245000e-04	1.38819000e-02
2.69372000e-02	4.38461000e-04	1.28294000e-02
3.13973000e-02	-2.46872000e-02	1.41567000e-02
9.00185000e-03	-1.81560000e-02	1.07620000e-02
2.75589000e-02	5.57608000e-03	3.02427000e-03
3.49613000e-02	-8.45033000e-03	1.99948000e-03
3.77520000e-02	-1.31655000e-02	1.78674000e-02
8.53805000e-03	-2.72225000e-02	1.80958000e-02
2.15073000e-02	-3.36972000e-02	1.71834000e-02
-1.06788000e-02	-3.85140000e-02	1.60533000e-02
3.60617000e-02	2.53265000e-03	7.04122000e-03
2.97446000e-02	-4.35609000e-03	1.80809000e-02
7.54399000e-03	-3.92097000e-02	7.55811000e-03
2.53210000e-02	-1.58438000e-03	4.57920000e-03
3.26726000e-02	6.40376000e-03	1.32313000e-02
-4.64070000e-03	-3.08071000e-02	1.00568000e-02
1.94923000e-02	-1.25444000e-02	9.01126000e-03
3.11695000e-02	-1.04200000e-02	2.34253000e-03
1.80707000e-02	-1.62584000e-02	1.47678000e-02
3.98147000e-02	-3.74993000e-03	4.84447000e-03
3.57588000e-02	8.14523000e-03	2.11484000e-03
2.41885000e-02	-2.71737000e-02	1.81005000e-02
5.03489000e-03	4.30188000e-03	2.86927000e-03
3.13361000e-02	-2.17561000e-02	5.28525000e-03
3.28480000e-02	-1.37473000e-02	5.48678000e-03
-1.38030000e-02	-3.75327000e-02	1.37465000e-02
3.59813000e-02	1.44095000e-02	1.47210000e-02
3.12977000e-02	-1.77358000e-02	1.81007000e-02
7.93814000e-03	-6.53380000e-03	7.47934000e-03
9.34693000e-03	-3.11393000e-02	1.81007000e-02
2.97569000e-02	-3.15699000e-03	8.82004000e-03
2.22306000e-02	-3.31629000e-02	9.33590000e-03
2.83388000e-02	-7.99291000e-03	7.88899000e-03
2.36009000e-02	-1.91568000e-02	1.50726000e-02
5.23826000e-03	-3.59225000e-02	8.00077000e-03
2.45811000e-02	-1.50029000e-02	1.46387000e-02
3.98644000e-02	-2.82854000e-03	9.45396000e-03
2.63999000e-02	1.48031000e-02	8.61457000e-03
3.20556000e-02	-6.67528000e-03	1.41667000e-02
3.30307000e-02	6.34054000e-04	4.98691000e-03
1.82577000e-02	1.39112000e-03	1.40255000e-02
3.00595000e-02	-2.04382000e-02	1.54260000e-02
2.22720000e-03	-3.03010000e-02	4.28930000e-03
3.63917000e-02	3.58834000e-03	1.76777000e-02
1.98003000e-02	-1.97561000e-02	1.38924000e-02
3.49363000e-02	8.70504000e-03	1.08696000e-02
2.33491000e-02	-3.81542000e-03	1.43131000e-02
2.86775000e-02	9.46332000e-03	1.37487000e-02
1.88779000e-02	-1.24545000e-02	1.38384000e-02
3.95310000e-02	6.05469000e-03	1.79484000e-02
6.45008000e-03	-1.77698000e-02	2.00351000e-03
2.04211000e-02	-3.13553000e-03	1.14281000e-02
3.16093000e-02	1.58453000e-02	1.37219000e-02
1.11204000e-02	-1.97574000e-02	2.31317000e-03
5.72968000e-03	-2.83309000e-02	5.40764000e-03
-8.61313000e-03	-3.11570000e-02	1.79215000e-02
-4.93620000e-03	-3.17534000e-02	6.15038000e-03
2.92753000e-02	1.08720000e-02	1.80959000e-02
1.39051000e-02	-2.81460000e-02	1.43689000e-02
1.09005000e-02	-3.07828000e-02	1.44330000e-02
1.51641000e-02	-3.11758000e-02	1.20312000e-02
2.51185000e-02	-1.81108000e-02	1.15146000e-02
1.14654000e-02	-1.98649000e-02	1.80643000e-02
7.96834000e-04	-1.90371000e-02	1.29271000e-02
2.79277000e-02	-1.69309000e-02	3.67091000e-03
3.19287000e-02	8.38228000e-03	5.96841000e-03
-1.48528000e-02	-3.59567000e-02	5.49898000e-03
3.00738000e-02	-9.81069000e-03	1.57396000e-02
5.01573000e-03	-3.22682000e-02	6.38196000e-03
1.36054000e-02	-3.35132000e-02	1.99973000e-03
1.80652000e-02	-6.76527000e-05	9.97229000e-03
2.08319000e-02	-3.30767000e-02	5.59107000e-03
3.99423000e-02	1.66560000e-03	1.77822000e-02
3.98636000e-02	1.23903000e-03	1.37039000e-02
3.12455000e-02	-2.49563000e-02	2.88909000e-03
1.50917000e-02	2.95304000e-03	1.80676000e-02
1.29128000e-02	-3.35964000e-02	5.93809000e-03
3.91672000e-02	-7.51851000e-03	6.01605000e-03
6.87388000e-03	-3.93979000e-02	1.78801000e-02
-4.95558000e-03	-2.95388000e-02	1.76136000e-02
2.86735000e-02	9.70842000e-03	9.64501000e-03
2.19097000e-02	-6.42464000e-03	9.70555000e-03
1.60969000e-02	-2.22303000e-02	7.18579000e-03
2.08132000e-02	-1.88208000e-02	1.79238000e-02
1.81755000e-02	-3.06516000e-02	3.84151000e-03
3.94148000e-02	6.52697000e-03	1.99975000e-03
2.43391000e-02	1.71089000e-04	1.81002000e-02
1.80074000e-03	-7.89652000e-03	9.27764000e-03
2.55656000e-02	-1.93908000e-02	6.03358000e-03
1.07624000e-02	-2.66011000e-02	6.50124000e-03
3.72372000e-02	1.27192000e-02	1.13186000e-02
3.43442000e-02	4.35336000e-03	3.91550000e-03
2.74267000e-02	-2.90065000e-02	9.17888000e-03
3.62932000e-02	1.66100000e-02	3.54952000e-03
2.79454000e-02	-1.02923000e-02	1.12487000e-02
1.81129000e-02	-3.56543000e-02	1.79867000e-02
1.16112000e-02	6.07433000e-03	9.74178000e-03
-2.39091000e-04	-3.64846000e-02	1.31008000e-02
2.50504000e-02	-2.19515000e-02	1.04001000e-02
3.19787000e-02	-6.35929000e-03	9.71514000e-03
5.52217000e-03	-3.34824000e-02	1.11546000e-02
1.33121000e-02	-1.63094000e-02	1.81000000e-02
1.38771000e-02	5.71549000e-03	1.51722000e-02
1.84812000e-02	-2.84788000e-02	1.48281000e-02
9.78030000e-03	-3.50398000e-02	1.68458000e-02
3.88894000e-02	9.05941000e-03	1.03730000e-02
2.32726000e-02	-1.64834000e-02	7.54568000e-03
1.21840000e-02	-3.25036000e-02	9.71582000e-03
3.78297000e-03	-2.73299000e-02	2.00021000e-03
3.08017000e-02	7.03617000e-04	8.86597000e-03
-8.83238000e-03	-3.65062000e-02	4.42952000e-03
3.37309000e-02	1.10046000e-02	1.80999000e-02
2.35049000e-02	1.28170000e-02	1.78210000e-02
1.15657000e-02	-2.28393000e-02	7.59577000e-03
1.41921000e-02	-3.48708000e-02	1.80961000e-02
4.42227000e-03	-3.49678000e-02	1.99998000e-03
3.79235000e-02	9.99125000e-03	1.41722000e-02
-1.18466000e-02	-3.38795000e-02	2.00043000e-03
2.24117000e-02	-2.10634000e-03	7.56965000e-03
3.58378000e-02	-1.77339000e-02	2.06178000e-03
3.10166000e-02	1.11794000e-02	2.19670000e-03
2.20613000e-02	-2.48307000e-02	1.20781000e-02
3.94972000e-02	-6.19682000e-03	1.71976000e-02
8.44587000e-03	-3.51933000e-02	2.00380000e-03
2.48653000e-02	-3.13211000e-02	1.80968000e-02
3.95102000e-02	5.21976000e-03	1.38692000e-02
3.54181000e-02	-1.05866000e-02	5.39999000e-03
3.67104000e-02	-7.02007000e-03	1.22105000e-02
-9.01388000e-03	-3.20966000e-02	1.39603000e-02
2.24973000e-02	9.09995000e-03	1.99882000e-03
3.29498000e-03	-1.46717000e-02	2.17531000e-03
1.66838000e-02	-3.62971000e-02	9.51908000e-03
3.11094000e-02	7.31956000e-03	1.79777000e-02
3.59104000e-02	-1.35510000e-02	8.05310000e-03
2.52009000e-02	-1.04764000e-02	7.27610000e-03
7.03927000e-03	-3.93128000e-02	1.16306000e-02
2.62917000e-02	-4.70057000e-03	6.89915000e-03
3.83908000e-02	-1.07674000e-02	1.99991000e-03
2.00608000e-02	-3.17882000e-02	1.28740000e-02
2.27996000e-02	-1.13479000e-02	1.72233000e-02
6.00977000e-03	-3.54846000e-02	1.81021000e-02
3.94999000e-02	3.21204000e-03	1.02436000e-02
2.09149000e-02	-9.03267000e-03	1.41994000e-02
3.30529000e-02	1.86330000e-02	2.21199000e-03
3.47208000e-02	-6.65140000e-03	5.56329000e-03
3.99881000e-02	3.78695000e-04	2.12973000e-03
3.54578000e-03	-6.52748000e-03	2.80143000e-03
3.35342000e-02	-4.19169000e-03	2.00114000e-03
2.26221000e-02	-1.04159000e-02	1.03421000e-02
-1.09047000e-03	-3.99693000e-02	1.80632000e-02
2.55577000e-02	9.40967000e-03	1.73961000e-02
2.13112000e-02	-2.14894000e-02	9.05713000e-03
3.43830000e-02	-9.49633000e-03	9.10629000e-03
2.70649000e-02	5.36764000e-03	1.35906000e-02
9.89869000e-03	-1.80637000e-02	5.77985000e-03
-1.89847000e-02	-3.51969000e-02	1.44497000e-02
3.45249000e-02	-1.25697000e-02	1.99963000e-03
1.83601000e-02	-1.62254000e-03	6.26122000e-03
1.19312000e-02	-3.81696000e-02	1.81003000e-02
3.00508000e-02	-2.03275000e-03	4.99471000e-03
3.24446000e-02	-1.72698000e-02	9.11758000e-03
3.93821000e-02	-6.89253000e-03	2.04443000e-03
1.46580000e-02	-2.59614000e-02	7.15958000e-03
1.70953000e-02	9.22039000e-03	1.80925000e-02
1.81829000e-02	-1.92946000e-02	5.44614000e-03
3.00616000e-02	-2.62558000e-03	1.27755000e-02
7.24362000e-03	-2.49239000e-02	9.05265000e-03
3.85430000e-02	-1.05762000e-02	8.51731000e-03
-4.77384000e-04	-2.39433000e-02	1.80415000e-02
-2.55196000e-03	-2.04121000e-02	9.32510000e-03
3.55590000e-02	-1.82630000e-02	1.62656000e-02
-2.65378000e-03	-3.99035000e-02	2.00316000e-03
2.81587000e-02	1.47128000e-02	1.81001000e-02
2.85311000e-02	-1.05188000e-03	1.61818000e-02
3.98976000e-02	-2.32112000e-03	1.80994000e-02
3.02013000e-02	-2.61625000e-02	9.64157000e-03
2.41622000e-02	-1.60404000e-02	1.99972000e-03
1.79858000e-02	-3.25162000e-02	9.53327000e-03
2.76734000e-02	-2.58886000e-02	1.49851000e-02
2.57575000e-02	-2.78042000e-02	5.74869000e-03
1.15758000e-02	2.40988000e-03	5.92855000e-03
2.63416000e-02	-1.41083000e-02	6.01900000e-03
3.87144000e-02	9.96768000e-03	1.80974000e-02
2.15949000e-02	1.65939000e-02	1.08230000e-02
2.65944000e-02	-1.52702000e-02	1.80989000e-02
3.23137000e-02	-1.33321000e-02	9.81164000e-03
1.95426000e-02	5.35172000e-03	2.00430000e-03
2.99862000e-02	-1.92491000e-02	1.15738000e-02
3.63696000e-02	-3.94749000e-04	1.80559000e-02
3.20933000e-02	-1.58132000e-02	1.99990000e-03
5.78558000e-03	-2.85854000e-02	9.73980000e-03
1.68794000e-02	-1.81197000e-02	1.81002000e-02
1.39987000e-02	8.51544000e-03	1.21874000e-02
3.53169000e-02	1.86892000e-02	1.74308000e-02
2.36482000e-02	5.26991000e-03	1.99988000e-03
8.45366000e-04	-2.81799000e-02	1.25320000e-02
2.46948000e-02	-2.29496000e-02	1.44273000e-02
2.11544000e-02	-1.78287000e-02	1.06604000e-02
1.83665000e-02	-5.06514000e-03	8.30267000e-03
-4.44303000e-03	-3.63470000e-02	1.29772000e-02
3.28155000e-02	1.02674000e-02	1.42565000e-02
2.42578000e-02	1.03109000e-02	1.37042000e-02
9.64638000e-03	-6.41235000e-03	1.80900000e-02
2.31218000e-02	-2.81033000e-02	1.43599000e-02
8.35446000e-04	-3.64642000e-02	1.80887000e-02
1.99298000e-02	7.51384000e-03	5.56289000e-03
8.39309000e-03	-9.95986000e-03	1.60441000e-02
2.80635000e-02	1.22368000e-02	6.03804000e-03
2.73592000e-02	-5.15484000e-03	1.47638000e-02
1.42385000e-02	-1.03606000e-02	1.47095000e-02
6.72304000e-03	-3.31297000e-02	1.49515000e-02
8.41388000e-03	-2.36802000e-02	3.03664000e-03
1.96112000e-03	-3.98381000e-02	1.41600000e-02
2.11878000e-02	-2.51854000e-02	1.62926000e-02
1.87473000e-02	-1.41399000e-02	1.80995000e-02
2.50847000e-02	-8.18301000e-03	2.90488000e-03
[...]
POINT_DATA 469
SCALARS Radius double 1
LOOKUP_TABLE default
2.00000000e-03
2.00000000e-03
2.00000000e-03
2.00000000e-03
2.00000000e-03
2.00000000e-03
2.00000000e-03
2.00000000e-03
2.00000000e-03
2.00000000e-03
2.00000000e-03
2.00000000e-03
2.00000000e-03
2.00000000e-03
2.00000000e-03
2.00000000e-03
2.00000000e-03
2.00000000e-03
2.00000000e-03
2.00000000e-03
2.00000000e-03
2.00000000e-03
2.00000000e-03
2.00000000e-03
2.00000000e-03
2.00000000e-03
2.00000000e-03
2.00000000e-03
2.00000000e-03
2.00000000e-03
2.00000000e-03
2.00000000e-03
2.00000000e-03
2.00000000e-03
2.00000000e-03
2.00000000e-03
2.00000000e-03
2.00000000e-03
2.00000000e-03
2.00000000e-03
2.00000000e-03
2.00000000e-03
2.00000000e-03
2.00000000e-03
2.00000000e-03
2.00000000e-03
2.00000000e-03
2.00000000e-03
2.00000000e-03
2.00000000e-03
2.00000000e-03
2.00000000e-03
2.00000000e-03
2.00000000e-03
2.00000000e-03
2.00000000e-03
2.00000000e-03
2.00000000e-03
2.00000000e-03
2.00000000e-03
2.00000000e-03
2.00000000e-03
2.00000000e-03
2.00000000e-03
2.00000000e-03
2.00000000e-03
2.00000000e-03
2.00000000e-03
2.00000000e-03
2.00000000e-03
2.00000000e-03
2.00000000e-03
2.00000000e-03
2.00000000e-03
2.00000000e-03
2.00000000e-03
2.00000000e-03
2.00000000e-03
2.00000000e-03
2.00000000e-03
2.00000000e-03
2.00000000e-03
2.00000000e-03
2.00000000e-03
2.00000000e-03
2.00000000e-03
2.00000000e-03
2.00000000e-03
2.00000000e-03
2.00000000e-03
2.00000000e-03
2.00000000e-03
2.00000000e-03
2.00000000e-03
2.00000000e-03
2.00000000e-03
2.00000000e-03
2.00000000e-03
2.00000000e-03
2.00000000e-03
2.00000000e-03
2.00000000e-03
2.00000000e-03
2.00000000e-03
2.00000000e-03
2.00000000e-03
2.00000000e-03
2.00000000e-03
2.00000000e-03
2.00000000e-03
2.00000000e-03
2.00000000e-03
2.00000000e-03
2.00000000e-03
2.00000000e-03
2.00000000e-03
2.00000000e-03
2.00000000e-03
2.00000000e-03
2.00000000e-03
2.00000000e-03
2.00000000e-03
2.00000000e-03
2.00000000e-03
2.00000000e-03
2.00000000e-03
2.00000000e-03
2.00000000e-03
2.00000000e-03
2.00000000e-03
2.00000000e-03
2.00000000e-03
2.00000000e-03
2.00000000e-03
2.00000000e-03
2.00000000e-03
2.00000000e-03
2.00000000e-03
2.00000000e-03
2.00000000e-03
2.00000000e-03
2.00000000e-03
2.00000000e-03
2.00000000e-03
2.00000000e-03
2.00000000e-03
2.00000000e-03
2.00000000e-03
2.00000000e-03
2.00000000e-03
2.00000000e-03
2.00000000e-03
2.00000000e-03
2.00000000e-03
2.00000000e-03
2.00000000e-03
2.00000000e-03
2.00000000e-03
2.00000000e-03
2.00000000e-03
2.00000000e-03
2.00000000e-03
2.00000000e-03
2.00000000e-03
2.00000000e-03
2.00000000e-03
2.00000000e-03
2.00000000e-03
2.00000000e-03
2.00000000e-03
2.00000000e-03
2.00000000e-03
2.00000000e-03
2.00000000e-03
2.00000000e-03
2.00000000e-03
2.00000000e-03
2.00000000e-03
2.00000000e-03
2.00000000e-03
2.00000000e-03
2.00000000e-03
2.00000000e-03
2.00000000e-03
2.00000000e-03
2.00000000e-03
2.00000000e-03
2.00000000e-03
2.00000000e-03
2.00000000e-03
2.00000000e-03
2.00000000e-03
2.00000000e-03
2.00000000e-03
2.00000000e-03
2.00000000e-03
2.00000000e-03
2.00000000e-03
2.00000000e-03
2.00000000e-03
2.00000000e-03
2.00000000e-03
2.00000000e-03
2.00000000e-03
2.00000000e-03
2.00000000e-03
2.00000000e-03
2.00000000e-03
2.00000000e-03
2.00000000e-03
2.00000000e-03
2.00000000e-03
2.00000000e-03
2.00000000e-03
2.00000000e-03
2.00000000e-03
2.00000000e-03
2.00000000e-03
2.00000000e-03
2.00000000e-03
2.00000000e-03
2.00000000e-03
2.00000000e-03
2.00000000e-03
2.00000000e-03
2.00000000e-03
2.00000000e-03
2.00000000e-03
2.00000000e-03
2.00000000e-03
2.00000000e-03
2.00000000e-03
2.00000000e-03
2.00000000e-03
2.00000000e-03
2.00000000e-03
2.00000000e-03
2.00000000e-03
2.00000000e-03
2.00000000e-03
2.00000000e-03
2.00000000e-03
2.00000000e-03
2.00000000e-03
2.00000000e-03
2.00000000e-03
2.00000000e-03
2.00000000e-03
2.00000000e-03
2.00000000e-03
2.00000000e-03
2.00000000e-03
2.00000000e-03
2.00000000e-03
2.00000000e-03
2.00000000e-03
2.00000000e-03
2.00000000e-03
2.00000000e-03
2.00000000e-03
2.00000000e-03
2.00000000e-03
2.00000000e-03
2.00000000e-03
2.00000000e-03
2.00000000e-03
2.00000000e-03
2.00000000e-03
2.00000000e-03
2.00000000e-03
2.00000000e-03
2.00000000e-03
2.00000000e-03
2.00000000e-03
2.00000000e-03
2.00000000e-03
2.00000000e-03
2.00000000e-03
2.00000000e-03
2.00000000e-03
2.00000000e-03
2.00000000e-03
2.00000000e-03
2.00000000e-03
2.00000000e-03
2.00000000e-03
2.00000000e-03
2.00000000e-03
2.00000000e-03
2.00000000e-03
2.00000000e-03
2.00000000e-03
2.00000000e-03
2.00000000e-03
2.00000000e-03
2.00000000e-03
2.00000000e-03
2.00000000e-03
2.00000000e-03
2.00000000e-03
2.00000000e-03
2.00000000e-03
2.00000000e-03
2.00000000e-03
2.00000000e-03
2.00000000e-03
2.00000000e-03
2.00000000e-03
2.00000000e-03
2.00000000e-03
2.00000000e-03
2.00000000e-03
2.00000000e-03
2.00000000e-03
2.00000000e-03
2.00000000e-03
2.00000000e-03
2.00000000e-03
2.00000000e-03
2.00000000e-03
2.00000000e-03
2.00000000e-03
2.00000000e-03
2.00000000e-03
2.00000000e-03
2.00000000e-03
2.00000000e-03
2.00000000e-03
2.00000000e-03
2.00000000e-03
2.00000000e-03
2.00000000e-03
2.00000000e-03
2.00000000e-03
2.00000000e-03
2.00000000e-03
2.00000000e-03
2.00000000e-03
2.00000000e-03
2.00000000e-03
2.00000000e-03
2.00000000e-03
2.00000000e-03
2.00000000e-03
2.00000000e-03
2.00000000e-03
2.00000000e-03
2.00000000e-03
2.00000000e-03
2.00000000e-03
2.00000000e-03
2.00000000e-03
2.00000000e-03
2.00000000e-03
2.00000000e-03
2.00000000e-03
2.00000000e-03
2.00000000e-03
2.00000000e-03
2.00000000e-03
2.00000000e-03
2.00000000e-03
2.00000000e-03
2.00000000e-03
2.00000000e-03
2.00000000e-03
2.00000000e-03
2.00000000e-03
2.00000000e-03
2.00000000e-03
2.00000000e-03
2.00000000e-03
2.00000000e-03
2.00000000e-03
2.00000000e-03
2.00000000e-03
2.00000000e-03
2.00000000e-03
2.00000000e-03
2.00000000e-03
2.00000000e-03
2.00000000e-03
2.00000000e-03
2.00000000e-03
2.00000000e-03
2.00000000e-03
2.00000000e-03
2.00000000e-03
2.00000000e-03
2.00000000e-03
2.00000000e-03
2.00000000e-03
2.00000000e-03
2.00000000e-03
2.00000000e-03
2.00000000e-03
2.00000000e-03
2.00000000e-03
2.00000000e-03
2.00000000e-03
2.00000000e-03
2.00000000e-03
2.00000000e-03
2.00000000e-03
2.00000000e-03
2.00000000e-03
2.00000000e-03
2.00000000e-03
2.00000000e-03
2.00000000e-03
2.00000000e-03
2.00000000e-03
2.00000000e-03
2.00000000e-03
2.00000000e-03
2.00000000e-03
2.00000000e-03
2.00000000e-03
2.00000000e-03
2.00000000e-03
2.00000000e-03
2.00000000e-03
2.00000000e-03
2.00000000e-03
2.00000000e-03
2.00000000e-03
2.00000000e-03
2.00000000e-03
2.00000000e-03
2.00000000e-03
2.00000000e-03
2.00000000e-03
2.00000000e-03
2.00000000e-03
2.00000000e-03
2.00000000e-03
2.00000000e-03
2.00000000e-03
2.00000000e-03
2.00000000e-03
2.00000000e-03
2.00000000e-03
2.00000000e-03
2.00000000e-03
2.00000000e-03
2.00000000e-03
2.00000000e-03
2.00000000e-03
2.00000000e-03
2.00000000e-03
2.00000000e-03
2.00000000e-03
2.00000000e-03
2.00000000e-03
2.00000000e-03
2.00000000e-03
2.00000000e-03
2.00000000e-03
2.00000000e-03
2.00000000e-03
2.00000000e-03
2.00000000e-03
2.00000000e-03
2.00000000e-03
2.00000000e-03
2.00000000e-03
2.00000000e-03
2.00000000e-03
2.00000000e-03
