# vtk DataFile Version 2.0
Particle data
ASCII
DATASET POLYDATA
POINTS 469 double
1.25692000e-02	-3.42421000e-02	1.45189000e-02
1.33433000e-02	-2.55221000e-02	1.35839000e-02
-1.09305000e-02	-3.72430000e-02	1.32967000e-02
3.20892000e-02	-8.00886000e-03	8.28137000e-03
1.82747000e-02	-2.36299000e-02	2.32774000e-03
3.56295000e-03	-3.64217000e-02	2.66914000e-03
5.97334000e-04	-3.99801000e-02	1.80544000e-02
2.95682000e-02	-3.22108000e-03	1.80985000e-02
4.26501000e-03	-1.50817000e-02	1.77108000e-02
3.79050000e-02	3.42720000e-03	1.81004000e-02
1.58410000e-02	-3.29924000e-02	7.32054000e-03
7.84575000e-03	-2.69712000e-02	1.81006000e-02
2.42361000e-02	7.05495000e-03	1.04338000e-02
1.26547000e-02	-2.01411000e-02	6.65720000e-03
1.86794000e-02	-2.95143000e-02	1.47246000e-02
3.97602000e-02	-3.79797000e-03	1.09486000e-02
2.46098000e-02	-6.11898000e-03	5.99589000e-03
6.24521000e-03	-2.46674000e-02	2.05232000e-03
2.68272000e-02	-4.79529000e-03	1.28736000e-02
1.09421000e-02	-3.84335000e-02	4.83101000e-03
2.05198000e-02	-3.03141000e-02	1.99930000e-03
1.04124000e-02	2.09619000e-03	1.72651000e-02
3.85107000e-02	-1.05884000e-02	2.00114000e-03
-3.17523000e-03	-3.54960000e-02	5.67396000e-03
3.33101000e-03	-2.63904000e-02	4.50372000e-03
3.62224000e-02	2.63413000e-03	9.57708000e-03
2.86264000e-02	-2.79241000e-02	1.50112000e-02
3.26973000e-03	-2.68965000e-02	1.65770000e-02
3.31891000e-02	-1.51499000e-02	1.18307000e-02
2.55400000e-02	-1.82740000e-03	1.52274000e-02
1.00323000e-02	-2.98694000e-02	8.46347000e-03
-1.39154000e-02	-3.49837000e-02	6.88374000e-03
3.69767000e-03	-3.09508000e-02	7.82072000e-03
1.24538000e-02	-9.23034000e-03	1.80238000e-02
3.71453000e-02	1.32056000e-02	1.03977000e-02
9.23597000e-03	-2.26878000e-02	1.14136000e-02
1.10848000e-02	-3.83827000e-02	9.60695000e-03
3.37728000e-02	-2.12875000e-02	9.90635000e-03
7.65025000e-03	-3.05957000e-02	1.32954000e-02
1.35065000e-02	-3.09670000e-02	4.78171000e-03
3.13711000e-02	-1.87126000e-02	1.17996000e-02
-1.18521000e-03	-3.09331000e-02	1.65888000e-02
3.76826000e-02	1.34074000e-02	2.70852000e-03
1.45729000e-02	-3.33243000e-02	1.80050000e-02
2.40824000e-02	1.44116000e-03	1.31634000e-02
2.07881000e-02	-2.94281000e-02	1.13271000e-02
1.77769000e-02	-2.11611000e-02	9.26299000e-03
2.65791000e-02	-2.46992000e-02	1.38245000e-02
2.53404000e-02	-9.40758000e-03	1.02630000e-02
1.80105000e-02	-3.57016000e-02	1.81001000e-02
2.94874000e-02	-2.95987000e-03	1.99980000e-03
2.00471000e-02	-1.79370000e-02	8.06025000e-03
3.16043000e-02	-2.43687000e-02	1.18062000e-02
2.59064000e-02	-5.76538000e-03	2.17599000e-03
3.58432000e-02	-2.66114000e-03	1.18266000e-02
3.26702000e-02	-8.98311000e-03	1.50700000e-02
3.99168000e-02	1.20275000e-03	9.02832000e-03
2.28833000e-02	-2.48946000e-02	1.80579000e-02
3.04393000e-02	1.00720000e-02	1.41085000e-02
2.98580000e-02	6.11930000e-03	1.42964000e-02
2.74533000e-02	9.32294000e-03	1.74981000e-02
1.62353000e-02	-1.00641000e-02	1.26642000e-02
2.18477000e-02	-8.98384000e-03	1.81000000e-02
3.58973000e-02	-9.21623000e-03	8.60551000e-03
9.04322000e-03	-1.66808000e-02	5.83906000e-03
2.01553000e-02	-2.76093000e-02	5.48321000e-03
3.89214000e-02	9.05595000e-03	3.17189000e-03
7.21177000e-03	-2.67155000e-02	1.41599000e-02
3.52268000e-02	4.87289000e-03	5.97805000e-03
2.40203000e-02	1.15498000e-02	8.09154000e-03
3.06845000e-02	-1.82756000e-02	7.88387000e-03
8.98124000e-03	1.80668000e-03	2.00672000e-03
1.43588000e-02	-3.73136000e-02	1.78334000e-02
1.55899000e-02	-3.68242000e-02	1.40585000e-02
-1.44567000e-02	-3.72349000e-02	3.49786000e-03
2.93955000e-02	-1.69917000e-02	1.81000000e-02
2.27598000e-02	-9.53773000e-03	5.05831000e-03
5.83939000e-03	-3.95599000e-02	6.33669000e-03
2.68026000e-02	1.87354000e-02	1.80996000e-02
3.97918000e-02	-3.98582000e-03	1.81002000e-02
2.53518000e-02	-2.35522000e-02	9.12936000e-03
2.12582000e-02	-8.16375000e-03	8.50141000e-03
2.05963000e-02	-4.30475000e-03	7.68348000e-03
1.56690000e-02	-6.28004000e-03	1.80702000e-02
2.58049000e-02	9.85566000e-03	2.35227000e-03
2.07734000e-02	-3.41613000e-02	3.06037000e-03
1.27775000e-02	-2.35737000e-02	1.80987000e-02
3.91812000e-02	-7.74567000e-03	1.06699000e-02
2.16869000e-02	4.91645000e-03	6.48510000e-03
3.10868000e-02	4.70865000e-03	3.75309000e-03
2.60769000e-02	-3.02959000e-02	1.05616000e-02
1.75532000e-02	-3.05352000e-02	4.67221000e-03
-4.81912000e-03	-2.34070000e-02	1.11559000e-02
2.80345000e-02	-2.85207000e-02	2.63508000e-03
5.00886000e-03	-2.87729000e-02	1.09083000e-02
-8.94779000e-03	-3.06309000e-02	1.01191000e-02
3.87728000e-02	-9.49630000e-03	5.83971000e-03
3.58374000e-02	4.78873000e-03	1.29279000e-02
7.04208000e-03	-1.79856000e-02	1.81000000e-02
7.07824000e-03	-3.23634000e-02	9.51215000e-03
3.13336000e-02	1.90761000e-03	6.59699000e-03
3.10562000e-02	2.71952000e-03	1.09683000e-02
3.28461000e-02	-1.69747000e-02	1.54757000e-02
1.89814000e-02	7.88097000e-03	1.75303000e-02
3.00720000e-02	5.55335000e-03	7.65543000e-03
2.28963000e-02	-3.27193000e-02	1.04784000e-02
1.49564000e-02	-1.28096000e-02	9.54333000e-03
2.67462000e-02	-2.74989000e-03	5.72152000e-03
3.59112000e-02	6.69110000e-03	2.01297000e-03
1.36736000e-02	-2.82983000e-02	8.98307000e-03
3.68424000e-02	-1.35930000e-04	1.99966000e-03
2.33446000e-02	-2.88676000e-02	1.80524000e-02
2.56143000e-02	-1.95608000e-02	1.75454000e-02
3.30979000e-02	-4.68537000e-03	1.99982000e-03
2.25596000e-02	4.99644000e-03	1.41816000e-02
2.92151000e-02	7.77771000e-03	1.99976000e-03
2.49878000e-02	-3.12081000e-02	1.51579000e-02
3.99854000e-02	-3.54909000e-04	5.34546000e-03
1.38400000e-02	-2.36918000e-02	5.24833000e-03
-5.52504000e-03	-3.85306000e-02	2.00000000e-03
2.19771000e-02	-2.51073000e-02	1.99956000e-03
2.04372000e-02	-2.88855000e-03	1.48222000e-02
5.82324000e-03	-3.95391000e-02	1.70577000e-02
3.26205000e-02	1.63796000e-02	6.20115000e-03
1.35582000e-02	4.80085000e-03	1.78497000e-02
2.14267000e-02	-3.37457000e-02	1.41826000e-02
6.31936000e-04	-3.77275000e-02	5.12365000e-03
5.51099000e-03	-3.77669000e-02	1.23693000e-02
3.30663000e-02	-1.08826000e-02	1.08863000e-02
2.56640000e-02	-1.91243000e-02	1.99863000e-03
3.13434000e-02	-8.46200000e-03	1.99942000e-03
1.46207000e-02	3.52383000e-03	7.50929000e-03
1.95648000e-02	-2.75604000e-02	1.81003000e-02
-1.41840000e-03	-3.74230000e-02	8.70216000e-03
1.54339000e-02	-1.73901000e-02	5.81641000e-03
3.20190000e-02	1.56198000e-02	1.33318000e-02
6.05239000e-03	-2.77716000e-02	7.16383000e-03
1.80169000e-03	-3.99499000e-02	2.00078000e-03
2.30747000e-02	-1.89115000e-03	1.11951000e-02
2.89360000e-02	-7.03871000e-03	1.54270000e-02
2.66855000e-02	5.44139000e-03	1.80842000e-02
1.78759000e-02	-3.56923000e-02	1.09767000e-02
2.27287000e-02	-1.48040000e-02	1.26004000e-02
3.08362000e-02	-2.54364000e-02	2.31104000e-03
5.83525000e-03	-3.55901000e-02	5.85385000e-03
1.48523000e-02	-3.71139000e-02	2.70255000e-03
3.94252000e-02	-6.69532000e-03	1.99900000e-03
1.07162000e-02	-3.16535000e-02	1.99967000e-03
1.82615000e-02	-1.50326000e-02	1.01527000e-02
3.25857000e-02	3.21571000e-03	1.46486000e-02
2.15594000e-02	-2.07860000e-02	1.80993000e-02
1.84679000e-02	-1.09033000e-02	9.35822000e-03
3.64256000e-03	-3.64416000e-02	9.08868000e-03
2.25009000e-02	-2.44998000e-02	1.19663000e-02
2.79061000e-02	-6.64320000e-03	8.25721000e-03
3.41376000e-02	-5.29232000e-03	1.45979000e-02
-2.45200000e-04	-3.53902000e-02	1.99929000e-03
1.83428000e-02	-2.00448000e-02	5.11793000e-03
2.37519000e-02	1.33450000e-02	1.58194000e-02
8.70067000e-03	-2.95055000e-02	4.70901000e-03
3.60981000e-03	-2.10800000e-02	1.00469000e-02
6.97718000e-03	-3.93815000e-02	2.01123000e-03
2.94327000e-02	1.46421000e-02	8.21484000e-03
3.40476000e-02	-1.31555000e-02	1.81009000e-02
2.03485000e-02	-5.19155000e-03	3.50662000e-03
1.09922000e-02	-2.86303000e-02	1.23151000e-02
2.84918000e-02	-9.23945000e-03	4.94175000e-03
1.72475000e-03	-3.98667000e-02	8.32341000e-03
3.54837000e-02	-9.42380000e-03	1.80163000e-02
3.95516000e-02	-5.59439000e-03	6.25175000e-03
-5.75705000e-03	-3.95484000e-02	1.61615000e-02
3.56160000e-02	6.78549000e-03	9.46928000e-03
2.80436000e-02	-2.26897000e-02	1.81001000e-02
1.16775000e-02	-2.71965000e-02	1.68116000e-02
9.69434000e-03	-3.87977000e-02	1.81011000e-02
-1.13749000e-02	-3.82138000e-02	8.92845000e-03
9.80118000e-03	-1.00772000e-02	2.01450000e-03
1.80980000e-02	3.94438000e-03	1.62860000e-02
-3.31864000e-03	-3.00493000e-02	1.26915000e-02
-7.22688000e-03	-3.37378000e-02	7.39508000e-03
3.24180000e-02	-1.58871000e-02	5.03574000e-03
2.57573000e-02	4.90893000e-03	6.19059000e-03
2.28195000e-02	-3.28321000e-02	1.81002000e-02
3.64813000e-02	-1.62403000e-02	1.39774000e-02
9.15304000e-03	-1.38311000e-02	1.62577000e-02
-1.48678000e-04	-3.25902000e-02	1.30988000e-02
2.14486000e-02	-1.76257000e-02	1.99965000e-03
5.31640000e-03	-2.32124000e-02	1.45243000e-02
1.09428000e-02	-3.49996000e-02	1.80938000e-02
2.39535000e-04	-3.14199000e-02	2.00293000e-03
3.70343000e-02	-2.45531000e-03	1.56391000e-02
1.65675000e-02	-1.03980000e-02	1.67956000e-02
3.87398000e-02	-9.95054000e-03	1.45392000e-02
3.16716000e-02	-2.43697000e-02	1.79766000e-02
1.49772000e-02	-2.13899000e-02	1.99995000e-03
2.96244000e-02	-9.78456000e-03	1.26014000e-02
1.01370000e-02	-1.17766000e-02	1.17480000e-02
2.83347000e-02	-2.92370000e-03	9.66418000e-03
2.42239000e-02	-1.30104000e-02	6.39371000e-03
3.51705000e-02	6.34554000e-03	1.81008000e-02
2.37637000e-02	-2.75023000e-02	1.42866000e-02
2.37292000e-02	-2.21672000e-02	1.50352000e-02
3.91970000e-02	-7.94068000e-03	1.81001000e-02
1.43175000e-02	3.78951000e-04	1.02853000e-02
3.59244000e-02	8.67154000e-04	1.37091000e-02
2.64044000e-02	-1.98843000e-02	7.93163000e-03
2.91199000e-02	-1.63880000e-02	1.41474000e-02
3.30539000e-02	-2.07836000e-02	5.86035000e-03
1.00139000e-02	-2.39459000e-02	1.51797000e-02
2.95449000e-02	-1.35773000e-02	1.13351000e-02
3.57677000e-02	1.44819000e-02	1.41415000e-02
2.65589000e-02	4.05703000e-03	2.16839000e-03
3.42046000e-02	1.02682000e-02	1.13543000e-02
2.59725000e-02	7.07869000e-03	1.40595000e-02
1.77442000e-02	-2.00006000e-02	1.54100000e-02
1.13707000e-02	-1.91002000e-02	2.08594000e-03
[...]
POINT_DATA 469
SCALARS Radius double 1
LOOKUP_TABLE default
2.00000000e-03
2.00000000e-03
2.00000000e-03
2.00000000e-03
2.00000000e-03
2.00000000e-03
2.00000000e-03
2.00000000e-03
2.00000000e-03
2.00000000e-03
2.00000000e-03
2.00000000e-03
2.00000000e-03
2.00000000e-03
2.00000000e-03
2.00000000e-03
2.00000000e-03
2.00000000e-03
2.00000000e-03
2.00000000e-03
2.00000000e-03
2.00000000e-03
2.00000000e-03
2.00000000e-03
2.00000000e-03
2.00000000e-03
2.00000000e-03
2.00000000e-03
2.00000000e-03
2.00000000e-03
2.00000000e-03
2.00000000e-03
2.00000000e-03
2.00000000e-03
2.00000000e-03
2.00000000e-03
2.00000000e-03
2.00000000e-03
2.00000000e-03
2.00000000e-03
2.00000000e-03
2.00000000e-03
2.00000000e-03
2.00000000e-03
2.00000000e-03
2.00000000e-03
2.00000000e-03
2.00000000e-03
2.00000000e-03
2.00000000e-03
2.00000000e-03
2.00000000e-03
2.00000000e-03
2.00000000e-03
2.00000000e-03
2.00000000e-03
2.00000000e-03
2.00000000e-03
2.00000000e-03
2.00000000e-03
2.00000000e-03
2.00000000e-03
2.00000000e-03
2.00000000e-03
2.00000000e-03
2.00000000e-03
2.00000000e-03
2.00000000e-03
2.00000000e-03
2.00000000e-03
2.00000000e-03
2.00000000e-03
2.00000000e-03
2.00000000e-03
2.00000000e-03
2.00000000e-03
2.00000000e-03
2.00000000e-03
2.00000000e-03
2.00000000e-03
2.00000000e-03
2.00000000e-03
2.00000000e-03
2.00000000e-03
2.00000000e-03
2.00000000e-03
2.00000000e-03
2.00000000e-03
2.00000000e-03
2.00000000e-03
2.00000000e-03
2.00000000e-03
2.00000000e-03
2.00000000e-03
2.00000000e-03
2.00000000e-03
2.00000000e-03
2.00000000e-03
2.00000000e-03
2.00000000e-03
2.00000000e-03
2.00000000e-03
2.00000000e-03
2.00000000e-03
2.00000000e-03
2.00000000e-03
2.00000000e-03
2.00000000e-03
2.00000000e-03
2.00000000e-03
2.00000000e-03
2.00000000e-03
2.00000000e-03
2.00000000e-03
2.00000000e-03
2.00000000e-03
2.00000000e-03
2.00000000e-03
2.00000000e-03
2.00000000e-03
2.00000000e-03
2.00000000e-03
2.00000000e-03
2.00000000e-03
2.00000000e-03
2.00000000e-03
2.00000000e-03
2.00000000e-03
2.00000000e-03
2.00000000e-03
2.00000000e-03
2.00000000e-03
2.00000000e-03
2.00000000e-03
2.00000000e-03
2.00000000e-03
2.00000000e-03
2.00000000e-03
2.00000000e-03
2.00000000e-03
2.00000000e-03
2.00000000e-03
2.00000000e-03
2.00000000e-03
2.00000000e-03
2.00000000e-03
2.00000000e-03
2.00000000e-03
2.00000000e-03
2.00000000e-03
2.00000000e-03
2.00000000e-03
2.00000000e-03
2.00000000e-03
2.00000000e-03
2.00000000e-03
2.00000000e-03
2.00000000e-03
2.00000000e-03
2.00000000e-03
2.00000000e-03
2.00000000e-03
2.00000000e-03
2.00000000e-03
2.00000000e-03
2.00000000e-03
2.00000000e-03
2.00000000e-03
2.00000000e-03
2.00000000e-03
2.00000000e-03
2.00000000e-03
2.00000000e-03
2.00000000e-03
2.00000000e-03
2.00000000e-03
2.00000000e-03
2.00000000e-03
2.00000000e-03
2.00000000e-03
2.00000000e-03
2.00000000e-03
2.00000000e-03
2.00000000e-03
2.00000000e-03
2.00000000e-03
2.00000000e-03
2.00000000e-03
2.00000000e-03
2.00000000e-03
2.00000000e-03
2.00000000e-03
2.00000000e-03
2.00000000e-03
2.00000000e-03
2.00000000e-03
2.00000000e-03
2.00000000e-03
2.00000000e-03
2.00000000e-03
2.00000000e-03
2.00000000e-03
2.00000000e-03
2.00000000e-03
2.00000000e-03
2.00000000e-03
2.00000000e-03
2.00000000e-03
2.00000000e-03
2.00000000e-03
2.00000000e-03
2.00000000e-03
2.00000000e-03
2.00000000e-03
2.00000000e-03
2.00000000e-03
2.00000000e-03
2.00000000e-03
2.00000000e-03
2.00000000e-03
2.00000000e-03
2.00000000e-03
2.00000000e-03
2.00000000e-03
2.00000000e-03
2.00000000e-03
2.00000000e-03
2.00000000e-03
2.00000000e-03
2.00000000e-03
2.00000000e-03
2.00000000e-03
2.00000000e-03
2.00000000e-03
2.00000000e-03
2.00000000e-03
2.00000000e-03
2.00000000e-03
2.00000000e-03
2.00000000e-03
2.00000000e-03
2.00000000e-03
2.00000000e-03
2.00000000e-03
2.00000000e-03
2.00000000e-03
2.00000000e-03
2.00000000e-03
2.00000000e-03
2.00000000e-03
2.00000000e-03
2.00000000e-03
2.00000000e-03
2.00000000e-03
2.00000000e-03
2.00000000e-03
2.00000000e-03
2.00000000e-03
2.00000000e-03
2.00000000e-03
2.00000000e-03
2.00000000e-03
2.00000000e-03
2.00000000e-03
2.00000000e-03
2.00000000e-03
2.00000000e-03
2.00000000e-03
2.00000000e-03
2.00000000e-03
2.00000000e-03
2.00000000e-03
2.00000000e-03
2.00000000e-03
2.00000000e-03
2.00000000e-03
2.00000000e-03
2.00000000e-03
2.00000000e-03
2.00000000e-03
2.00000000e-03
2.00000000e-03
2.00000000e-03
2.00000000e-03
2.00000000e-03
2.00000000e-03
2.00000000e-03
2.00000000e-03
2.00000000e-03
2.00000000e-03
2.00000000e-03
2.00000000e-03
2.00000000e-03
2.00000000e-03
2.00000000e-03
2.00000000e-03
2.00000000e-03
2.00000000e-03
2.00000000e-03
2.00000000e-03
2.00000000e-03
2.00000000e-03
2.00000000e-03
2.00000000e-03
2.00000000e-03
2.00000000e-03
2.00000000e-03
2.00000000e-03
2.00000000e-03
2.00000000e-03
2.00000000e-03
2.00000000e-03
2.00000000e-03
2.00000000e-03
2.00000000e-03
2.00000000e-03
2.00000000e-03
2.00000000e-03
2.00000000e-03
2.00000000e-03
2.00000000e-03
2.00000000e-03
2.00000000e-03
2.00000000e-03
2.00000000e-03
2.00000000e-03
2.00000000e-03
2.00000000e-03
2.00000000e-03
2.00000000e-03
2.00000000e-03
2.00000000e-03
2.00000000e-03
2.00000000e-03
2.00000000e-03
2.00000000e-03
2.00000000e-03
2.00000000e-03
2.00000000e-03
2.00000000e-03
2.00000000e-03
2.00000000e-03
2.00000000e-03
2.00000000e-03
2.00000000e-03
2.00000000e-03
2.00000000e-03
2.00000000e-03
2.00000000e-03
2.00000000e-03
2.00000000e-03
2.00000000e-03
2.00000000e-03
2.00000000e-03
2.00000000e-03
2.00000000e-03
2.00000000e-03
2.00000000e-03
2.00000000e-03
2.00000000e-03
2.00000000e-03
2.00000000e-03
2.00000000e-03
2.00000000e-03
2.00000000e-03
2.00000000e-03
2.00000000e-03
2.00000000e-03
2.00000000e-03
2.00000000e-03
2.00000000e-03
2.00000000e-03
2.00000000e-03
2.00000000e-03
2.00000000e-03
2.00000000e-03
2.00000000e-03
2.00000000e-03
2.00000000e-03
2.00000000e-03
2.00000000e-03
2.00000000e-03
2.00000000e-03
2.00000000e-03
2.00000000e-03
2.00000000e-03
2.00000000e-03
2.00000000e-03
2.00000000e-03
2.00000000e-03
2.00000000e-03
2.00000000e-03
2.00000000e-03
2.00000000e-03
2.00000000e-03
2.00000000e-03
2.00000000e-03
2.00000000e-03
2.00000000e-03
2.00000000e-03
2.00000000e-03
2.00000000e-03
2.00000000e-03
2.00000000e-03
2.00000000e-03
2.00000000e-03
2.00000000e-03
2.00000000e-03
2.00000000e-03
2.00000000e-03
2.00000000e-03
2.00000000e-03
2.00000000e-03
2.00000000e-03
2.00000000e-03
2.00000000e-03
2.00000000e-03
2.00000000e-03
2.00000000e-03
2.00000000e-03
2.00000000e-03
2.00000000e-03
2.00000000e-03
2.00000000e-03
2.00000000e-03
2.00000000e-03
2.00000000e-03
2.00000000e-03
2.00000000e-03
2.00000000e-03
2.00000000e-03
2.00000000e-03
2.00000000e-03
2.00000000e-03
2.00000000e-03
2.00000000e-03
2.00000000e-03
2.00000000e-03
2.00000000e-03
2.00000000e-03
2.00000000e-03
2.00000000e-03
2.00000000e-03
2.00000000e-03
2.00000000e-03
2.00000000e-03
2.00000000e-03
2.00000000e-03
2.00000000e-03
2.00000000e-03
2.00000000e-03
2.00000000e-03
2.00000000e-03
2.00000000e-03
2.00000000e-03
2.00000000e-03
2.00000000e-03
2.00000000e-03
2.00000000e-03
2.00000000e-03
2.00000000e-03
2.00000000e-03
2.00000000e-03
2.00000000e-03
2.00000000e-03
2.00000000e-03
2.00000000e-03
2.00000000e-03
2.00000000e-03
