# vtk DataFile Version 2.0
Particle data
ASCII
DATASET POLYDATA
POINTS 469 double
1.27437000e-02	-3.37237000e-02	8.54642000e-03
4.40443000e-03	-2.67773000e-02	1.03312000e-02
1.26000000e-02	-3.45645000e-04	2.11117000e-03
3.99875000e-02	-2.40593000e-04	1.80208000e-02
7.56928000e-03	-1.74858000e-02	3.39889000e-03
1.73066000e-02	-3.60554000e-02	2.45485000e-03
1.06265000e-02	-3.19848000e-02	1.14700000e-02
2.65053000e-02	-1.27392000e-02	1.75997000e-02
-6.49444000e-03	-3.33192000e-02	1.80996000e-02
3.42381000e-02	1.25578000e-02	1.14313000e-02
2.16610000e-02	-3.36114000e-02	1.78668000e-02
4.06313000e-03	-3.02159000e-02	1.78459000e-02
-1.15174000e-02	-3.07273000e-02	1.33722000e-02
2.07705000e-02	1.16151000e-02	2.01866000e-03
1.88361000e-02	-3.51958000e-02	1.45185000e-02
3.29184000e-02	7.82166000e-04	1.21815000e-02
3.62235000e-02	-4.87902000e-03	1.41807000e-02
-1.33518000e-03	-3.28478000e-02	2.00509000e-03
2.86960000e-02	-1.37563000e-02	1.41517000e-02
2.36093000e-02	-2.99034000e-02	1.11551000e-02
2.60327000e-02	-2.53790000e-02	2.01158000e-03
-9.40919000e-03	-3.01571000e-02	1.80939000e-02
3.65739000e-02	2.64090000e-03	1.14794000e-02
2.11326000e-02	-1.24570000e-02	2.28860000e-03
2.36859000e-02	8.08377000e-03	2.56590000e-03
3.62303000e-02	9.56432000e-03	1.46806000e-02
3.37488000e-02	-2.14619000e-02	1.43239000e-02
-5.87079000e-03	-3.63278000e-02	1.25676000e-02
3.91292000e-02	-8.17086000e-03	1.65852000e-02
1.88790000e-02	-1.21061000e-02	1.38321000e-02
-3.33918000e-03	-3.29081000e-02	1.12365000e-02
1.97762000e-03	-3.99378000e-02	1.99999000e-03
5.53664000e-04	-3.63873000e-02	5.16322000e-03
2.12105000e-02	1.74889000e-03	1.81003000e-02
2.70604000e-02	4.85063000e-03	8.97285000e-03
1.78558000e-02	9.46967000e-03	1.01801000e-02
1.69060000e-02	-3.43915000e-02	6.11166000e-03
3.30835000e-02	-1.52969000e-02	9.53374000e-03
7.52462000e-03	-2.95279000e-02	1.08860000e-02
2.15929000e-02	-4.17580000e-04	2.10933000e-03
3.13201000e-02	-1.85914000e-02	8.10821000e-03
8.77684000e-04	-3.82415000e-02	1.53239000e-02
2.54223000e-02	1.34989000e-02	2.00570000e-03
1.37321000e-02	-2.43926000e-02	1.52668000e-02
3.49283000e-02	4.60099000e-03	1.45532000e-02
2.65824000e-02	-2.49027000e-02	1.11537000e-02
1.98611000e-02	-2.30694000e-02	1.36293000e-02
1.94680000e-02	-2.21056000e-02	5.43153000e-03
2.24619000e-02	-1.41860000e-02	1.00718000e-02
1.23906000e-02	-2.68822000e-02	1.80947000e-02
1.55816000e-02	-1.73883000e-02	2.05640000e-03
1.80155000e-02	-1.46556000e-02	3.68846000e-03
3.63429000e-02	3.74590000e-04	1.64913000e-02
2.68108000e-02	-1.11632000e-02	8.11592000e-03
3.92731000e-02	7.51449000e-03	4.48495000e-03
3.83333000e-02	-1.12323000e-02	1.41370000e-02
3.46378000e-02	9.22547000e-03	9.25517000e-03
2.36279000e-02	-2.31897000e-02	1.49684000e-02
3.68436000e-02	1.44587000e-02	1.41143000e-02
3.29806000e-02	1.40526000e-02	1.68584000e-02
2.32216000e-02	1.94203000e-02	1.72232000e-02
2.53354000e-02	-3.47988000e-03	1.14776000e-02
1.67252000e-02	-2.19505000e-02	1.80990000e-02
3.60050000e-02	-6.74318000e-03	1.01734000e-02
8.46058000e-03	-6.71015000e-03	6.96482000e-03
2.68973000e-02	-2.95088000e-02	6.97465000e-03
2.84506000e-02	1.44751000e-02	5.33357000e-03
3.77208000e-04	-3.17578000e-02	1.80971000e-02
3.80928000e-02	1.15073000e-02	1.17220000e-02
2.25854000e-02	1.55209000e-02	1.04087000e-02
3.48284000e-02	-1.95398000e-02	6.39423000e-03
-1.20060000e-02	-3.48119000e-02	1.99999000e-03
1.69746000e-02	-2.98578000e-02	1.81003000e-02
2.96172000e-02	-2.21692000e-02	8.65111000e-03
6.07861000e-03	-3.83539000e-02	5.77948000e-03
3.27154000e-02	-2.22880000e-02	1.80994000e-02
3.02260000e-02	-1.34346000e-02	5.85175000e-03
1.08915000e-02	-2.54594000e-02	8.54359000e-03
1.84106000e-03	-2.37921000e-02	1.30176000e-02
2.31026000e-02	-1.01036000e-02	1.81003000e-02
2.38597000e-02	-2.28651000e-02	5.35984000e-03
2.27009000e-02	2.68015000e-03	8.05099000e-03
3.06389000e-02	1.41362000e-02	2.00255000e-03
2.74045000e-02	1.94654000e-02	1.72783000e-02
2.51978000e-02	4.41036000e-03	2.09599000e-03
2.73902000e-02	-2.91398000e-02	1.99883000e-03
4.94337000e-03	-3.71378000e-02	1.48941000e-02
3.63775000e-02	-1.13398000e-03	1.27862000e-02
2.47308000e-02	9.81767000e-03	6.10656000e-03
3.07929000e-02	-5.59578000e-03	6.73883000e-03
2.77552000e-02	-2.37597000e-02	5.48910000e-03
1.15385000e-02	-2.89734000e-02	2.00505000e-03
-3.17446000e-03	-2.68532000e-02	6.05985000e-03
3.42871000e-02	-2.04787000e-02	1.02445000e-02
1.94575000e-02	4.57929000e-03	1.58207000e-02
-1.02293000e-02	-3.85981000e-02	7.60951000e-03
3.59692000e-02	-2.12257000e-03	8.93247000e-03
3.12670000e-02	8.01864000e-03	1.81002000e-02
1.87699000e-02	-1.42501000e-02	1.80957000e-02
1.66059000e-02	-8.96673000e-03	1.27405000e-02
3.00982000e-02	-1.87868000e-03	2.02555000e-03
3.00170000e-02	-1.86980000e-03	1.14281000e-02
3.40934000e-02	-8.17010000e-03	1.33908000e-02
-1.45040000e-02	-2.93374000e-02	1.56999000e-02
3.47008000e-02	5.23025000e-03	9.07442000e-03
2.13091000e-02	-1.64431000e-02	2.00922000e-03
3.32862000e-02	5.22760000e-04	2.28619000e-03
2.42498000e-02	-9.88621000e-03	2.00874000e-03
2.79858000e-02	1.71293000e-02	1.99989000e-03
1.47441000e-02	-1.20401000e-02	7.91799000e-03
3.30644000e-02	-3.26651000e-03	4.32170000e-03
2.85869000e-02	-2.34629000e-02	1.80981000e-02
2.26908000e-02	-2.55133000e-02	1.18500000e-02
3.63428000e-02	-2.05600000e-03	2.36792000e-03
2.57648000e-02	1.58960000e-02	1.80426000e-02
3.30008000e-02	1.09097000e-02	2.09239000e-03
3.71562000e-02	-1.47337000e-02	1.01000000e-02
3.08325000e-02	2.49444000e-03	9.22894000e-03
1.82002000e-03	-2.97628000e-02	1.09075000e-02
2.26143000e-03	-3.98510000e-02	6.19922000e-03
1.66839000e-02	-2.80790000e-02	2.00019000e-03
1.74282000e-02	-1.80157000e-02	1.80042000e-02
2.63585000e-02	-3.00542000e-02	1.68399000e-02
1.94595000e-02	1.38103000e-02	1.58403000e-02
-1.56366000e-02	-3.36718000e-02	1.81002000e-02
2.37293000e-02	-2.82865000e-02	4.63995000e-03
1.43785000e-02	-3.73088000e-02	5.06353000e-03
4.24580000e-03	-2.98564000e-02	6.49793000e-03
3.50910000e-02	-1.03569000e-02	8.72334000e-03
3.23075000e-02	-1.02108000e-02	2.03189000e-03
3.33568000e-02	-1.59096000e-02	5.59078000e-03
-1.47320000e-02	-3.67275000e-02	4.91867000e-03
2.52308000e-02	-2.12867000e-02	1.81001000e-02
-1.54737000e-03	-3.61553000e-02	1.27344000e-02
2.15104000e-02	-8.53326000e-03	1.28961000e-02
3.11530000e-02	1.74486000e-02	5.66713000e-03
-6.75773000e-04	-2.94047000e-02	3.95431000e-03
1.35347000e-02	-3.46717000e-02	2.00856000e-03
3.09307000e-02	3.33134000e-03	1.45532000e-02
3.30261000e-02	-1.46462000e-02	1.73407000e-02
2.95628000e-02	1.61710000e-02	1.65906000e-02
2.07350000e-02	-2.80527000e-02	1.99871000e-03
2.25275000e-02	-2.83385000e-02	1.46734000e-02
3.71449000e-02	-1.47304000e-02	6.10017000e-03
1.48288000e-02	-3.03535000e-02	8.01654000e-03
2.43761000e-02	-3.16993000e-02	2.65788000e-03
3.94218000e-02	6.21347000e-03	1.07606000e-02
2.07944000e-02	-3.41507000e-02	2.00000000e-03
2.57187000e-02	-6.38019000e-03	8.74989000e-03
2.43370000e-02	4.39062000e-03	1.81002000e-02
1.87135000e-02	-2.83513000e-02	1.08407000e-02
2.87454000e-02	2.04933000e-03	1.80999000e-02
1.12782000e-02	-3.83351000e-02	1.15208000e-02
3.11198000e-02	-2.50994000e-02	1.54631000e-02
1.53312000e-02	-2.12271000e-02	1.34175000e-02
2.21270000e-02	-1.81677000e-02	1.02527000e-02
1.06275000e-02	-3.84416000e-02	5.86710000e-03
1.59019000e-02	-3.24790000e-03	3.38777000e-03
-1.07274000e-02	-2.68887000e-02	6.66936000e-03
1.81770000e-02	-2.43654000e-02	1.99908000e-03
-7.01219000e-03	-3.58881000e-02	5.98086000e-03
1.17188000e-02	-3.82348000e-02	1.99985000e-03
3.41427000e-02	1.74143000e-02	1.41130000e-02
3.30033000e-02	-8.44332000e-03	1.81002000e-02
3.05023000e-02	7.78669000e-03	2.07389000e-03
9.66440000e-03	-2.19888000e-02	1.01421000e-02
1.62593000e-02	-2.00318000e-02	6.61514000e-03
1.92498000e-02	-3.06758000e-02	4.62637000e-03
3.97586000e-02	-4.23372000e-03	1.80476000e-02
3.20798000e-02	-2.02669000e-03	8.00486000e-03
1.47355000e-02	-3.71507000e-02	9.07284000e-03
3.52864000e-02	1.58090000e-02	2.51154000e-03
1.86795000e-02	-2.18214000e-02	9.89900000e-03
6.38430000e-03	-3.25391000e-02	1.41859000e-02
1.12051000e-02	-2.85319000e-02	5.98262000e-03
8.83688000e-03	-3.53382000e-02	1.27268000e-02
-4.39713000e-03	-3.97399000e-02	2.00186000e-03
-8.11697000e-03	-2.73847000e-02	1.50284000e-02
7.56178000e-03	-3.84783000e-02	1.80999000e-02
2.72816000e-02	-7.46871000e-03	5.23304000e-03
3.98701000e-02	-3.00133000e-03	1.42440000e-02
2.31611000e-02	-7.32116000e-03	4.92503000e-03
1.18909000e-02	-2.22531000e-02	1.81004000e-02
3.98387000e-02	5.50459000e-04	7.35349000e-03
1.86767000e-02	-5.69502000e-03	1.47288000e-02
8.08506000e-03	-3.91332000e-02	9.15075000e-03
1.98030000e-02	-3.13562000e-02	1.33336000e-02
-3.28612000e-03	-3.97985000e-02	1.32355000e-02
2.06852000e-02	-2.17552000e-02	1.75504000e-02
6.88800000e-03	-3.93875000e-02	1.99975000e-03
3.61050000e-02	6.77405000e-03	1.78086000e-02
3.24354000e-02	1.08219000e-02	1.45528000e-02
3.92763000e-02	6.97212000e-03	1.46844000e-02
3.93666000e-02	-6.71652000e-03	7.81848000e-03
2.27707000e-02	-1.12141000e-02	5.74603000e-03
2.93412000e-02	-6.83493000e-03	1.81001000e-02
3.03901000e-02	9.80440000e-03	1.08703000e-02
1.81938000e-02	-1.77226000e-02	9.24609000e-03
1.35222000e-02	-2.40261000e-02	1.11988000e-02
3.71606000e-02	1.43974000e-02	1.81006000e-02
3.21306000e-02	-2.36466000e-02	1.13896000e-02
2.50408000e-02	-2.59612000e-02	7.61810000e-03
3.18451000e-02	-7.81486000e-03	1.01024000e-02
-1.39969000e-02	-3.39050000e-02	1.38258000e-02
3.98967000e-02	2.35044000e-03	1.49749000e-02
2.14718000e-02	-2.41853000e-02	8.28189000e-03
2.20953000e-02	-1.69985000e-02	1.41169000e-02
3.50955000e-02	-1.91040000e-02	1.76492000e-02
-2.24630000e-03	-2.86329000e-02	1.43143000e-02
2.85940000e-02	-1.77120000e-02	1.47350000e-02
2.75325000e-02	1.63664000e-02	1.26236000e-02
3.54876000e-02	4.24770000e-03	1.99999000e-03
3.49007000e-02	1.61801000e-02	6.47540000e-03
2.97947000e-02	-4.54870000e-04	1.51626000e-02
-2.68799000e-03	-3.25093000e-02	1.53739000e-02
2.39384000e-02	1.53925000e-02	5.20896000e-03
[...]
POINT_DATA 469
SCALARS Radius double 1
LOOKUP_TABLE default
2.00000000e-03
2.00000000e-03
2.00000000e-03
2.00000000e-03
2.00000000e-03
2.00000000e-03
2.00000000e-03
2.00000000e-03
2.00000000e-03
2.00000000e-03
2.00000000e-03
2.00000000e-03
2.00000000e-03
2.00000000e-03
2.00000000e-03
2.00000000e-03
2.00000000e-03
2.00000000e-03
2.00000000e-03
2.00000000e-03
2.00000000e-03
2.00000000e-03
2.00000000e-03
2.00000000e-03
2.00000000e-03
2.00000000e-03
2.00000000e-03
2.00000000e-03
2.00000000e-03
2.00000000e-03
2.00000000e-03
2.00000000e-03
2.00000000e-03
2.00000000e-03
2.00000000e-03
2.00000000e-03
2.00000000e-03
2.00000000e-03
2.00000000e-03
2.00000000e-03
2.00000000e-03
2.00000000e-03
2.00000000e-03
2.00000000e-03
2.00000000e-03
2.00000000e-03
2.00000000e-03
2.00000000e-03
2.00000000e-03
2.00000000e-03
2.00000000e-03
2.00000000e-03
2.00000000e-03
2.00000000e-03
2.00000000e-03
2.00000000e-03
2.00000000e-03
2.00000000e-03
2.00000000e-03
2.00000000e-03
2.00000000e-03
2.00000000e-03
2.00000000e-03
2.00000000e-03
2.00000000e-03
2.00000000e-03
2.00000000e-03
2.00000000e-03
2.00000000e-03
2.00000000e-03
2.00000000e-03
2.00000000e-03
2.00000000e-03
2.00000000e-03
2.00000000e-03
2.00000000e-03
2.00000000e-03
2.00000000e-03
2.00000000e-03
2.00000000e-03
2.00000000e-03
2.00000000e-03
2.00000000e-03
2.00000000e-03
2.00000000e-03
2.00000000e-03
2.00000000e-03
2.00000000e-03
2.00000000e-03
2.00000000e-03
2.00000000e-03
2.00000000e-03
2.00000000e-03
2.00000000e-03
2.00000000e-03
2.00000000e-03
2.00000000e-03
2.00000000e-03
2.00000000e-03
2.00000000e-03
2.00000000e-03
2.00000000e-03
2.00000000e-03
2.00000000e-03
2.00000000e-03
2.00000000e-03
2.00000000e-03
2.00000000e-03
2.00000000e-03
2.00000000e-03
2.00000000e-03
2.00000000e-03
2.00000000e-03
2.00000000e-03
2.00000000e-03
2.00000000e-03
2.00000000e-03
2.00000000e-03
2.00000000e-03
2.00000000e-03
2.00000000e-03
2.00000000e-03
2.00000000e-03
2.00000000e-03
2.00000000e-03
2.00000000e-03
2.00000000e-03
2.00000000e-03
2.00000000e-03
2.00000000e-03
2.00000000e-03
2.00000000e-03
2.00000000e-03
2.00000000e-03
2.00000000e-03
2.00000000e-03
2.00000000e-03
2.00000000e-03
2.00000000e-03
2.00000000e-03
2.00000000e-03
2.00000000e-03
2.00000000e-03
2.00000000e-03
2.00000000e-03
2.00000000e-03
2.00000000e-03
2.00000000e-03
2.00000000e-03
2.00000000e-03
2.00000000e-03
2.00000000e-03
2.00000000e-03
2.00000000e-03
2.00000000e-03
2.00000000e-03
2.00000000e-03
2.00000000e-03
2.00000000e-03
2.00000000e-03
2.00000000e-03
2.00000000e-03
2.00000000e-03
2.00000000e-03
2.00000000e-03
2.00000000e-03
2.00000000e-03
2.00000000e-03
2.00000000e-03
2.00000000e-03
2.00000000e-03
2.00000000e-03
2.00000000e-03
2.00000000e-03
2.00000000e-03
2.00000000e-03
2.00000000e-03
2.00000000e-03
2.00000000e-03
2.00000000e-03
2.00000000e-03
2.00000000e-03
2.00000000e-03
2.00000000e-03
2.00000000e-03
2.00000000e-03
2.00000000e-03
2.00000000e-03
2.00000000e-03
2.00000000e-03
2.00000000e-03
2.00000000e-03
2.00000000e-03
2.00000000e-03
2.00000000e-03
2.00000000e-03
2.00000000e-03
2.00000000e-03
2.00000000e-03
2.00000000e-03
2.00000000e-03
2.00000000e-03
2.00000000e-03
2.00000000e-03
2.00000000e-03
2.00000000e-03
2.00000000e-03
2.00000000e-03
2.00000000e-03
2.00000000e-03
2.00000000e-03
2.00000000e-03
2.00000000e-03
2.00000000e-03
2.00000000e-03
2.00000000e-03
2.00000000e-03
2.00000000e-03
2.00000000e-03
2.00000000e-03
2.00000000e-03
2.00000000e-03
2.00000000e-03
2.00000000e-03
2.00000000e-03
2.00000000e-03
2.00000000e-03
2.00000000e-03
2.00000000e-03
2.00000000e-03
2.00000000e-03
2.00000000e-03
2.00000000e-03
2.00000000e-03
2.00000000e-03
2.00000000e-03
2.00000000e-03
2.00000000e-03
2.00000000e-03
2.00000000e-03
2.00000000e-03
2.00000000e-03
2.00000000e-03
2.00000000e-03
2.00000000e-03
2.00000000e-03
2.00000000e-03
2.00000000e-03
2.00000000e-03
2.00000000e-03
2.00000000e-03
2.00000000e-03
2.00000000e-03
2.00000000e-03
2.00000000e-03
2.00000000e-03
2.00000000e-03
2.00000000e-03
2.00000000e-03
2.00000000e-03
2.00000000e-03
2.00000000e-03
2.00000000e-03
2.00000000e-03
2.00000000e-03
2.00000000e-03
2.00000000e-03
2.00000000e-03
2.00000000e-03
2.00000000e-03
2.00000000e-03
2.00000000e-03
2.00000000e-03
2.00000000e-03
2.00000000e-03
2.00000000e-03
2.00000000e-03
2.00000000e-03
2.00000000e-03
2.00000000e-03
2.00000000e-03
2.00000000e-03
2.00000000e-03
2.00000000e-03
2.00000000e-03
2.00000000e-03
2.00000000e-03
2.00000000e-03
2.00000000e-03
2.00000000e-03
2.00000000e-03
2.00000000e-03
2.00000000e-03
2.00000000e-03
2.00000000e-03
2.00000000e-03
2.00000000e-03
2.00000000e-03
2.00000000e-03
2.00000000e-03
2.00000000e-03
2.00000000e-03
2.00000000e-03
2.00000000e-03
2.00000000e-03
2.00000000e-03
2.00000000e-03
2.00000000e-03
2.00000000e-03
2.00000000e-03
2.00000000e-03
2.00000000e-03
2.00000000e-03
2.00000000e-03
2.00000000e-03
2.00000000e-03
2.00000000e-03
2.00000000e-03
2.00000000e-03
2.00000000e-03
2.00000000e-03
2.00000000e-03
2.00000000e-03
2.00000000e-03
2.00000000e-03
2.00000000e-03
2.00000000e-03
2.00000000e-03
2.00000000e-03
2.00000000e-03
2.00000000e-03
2.00000000e-03
2.00000000e-03
2.00000000e-03
2.00000000e-03
2.00000000e-03
2.00000000e-03
2.00000000e-03
2.00000000e-03
2.00000000e-03
2.00000000e-03
2.00000000e-03
2.00000000e-03
2.00000000e-03
2.00000000e-03
2.00000000e-03
2.00000000e-03
2.00000000e-03
2.00000000e-03
2.00000000e-03
2.00000000e-03
2.00000000e-03
2.00000000e-03
2.00000000e-03
2.00000000e-03
2.00000000e-03
2.00000000e-03
2.00000000e-03
2.00000000e-03
2.00000000e-03
2.00000000e-03
2.00000000e-03
2.00000000e-03
2.00000000e-03
2.00000000e-03
2.00000000e-03
2.00000000e-03
2.00000000e-03
2.00000000e-03
2.00000000e-03
2.00000000e-03
2.00000000e-03
2.00000000e-03
2.00000000e-03
2.00000000e-03
2.00000000e-03
2.00000000e-03
2.00000000e-03
2.00000000e-03
2.00000000e-03
2.00000000e-03
2.00000000e-03
2.00000000e-03
2.00000000e-03
2.00000000e-03
2.00000000e-03
2.00000000e-03
2.00000000e-03
2.00000000e-03
2.00000000e-03
2.00000000e-03
2.00000000e-03
2.00000000e-03
2.00000000e-03
2.00000000e-03
2.00000000e-03
2.00000000e-03
2.00000000e-03
2.00000000e-03
2.00000000e-03
2.00000000e-03
2.00000000e-03
2.00000000e-03
2.00000000e-03
2.00000000e-03
2.00000000e-03
2.00000000e-03
2.00000000e-03
2.00000000e-03
2.00000000e-03
2.00000000e-03
2.00000000e-03
2.00000000e-03
2.00000000e-03
2.00000000e-03
2.00000000e-03
2.00000000e-03
2.00000000e-03
2.00000000e-03
2.00000000e-03
2.00000000e-03
2.00000000e-03
2.00000000e-03
2.00000000e-03
2.00000000e-03
2.00000000e-03
2.00000000e-03
2.00000000e-03
2.00000000e-03
2.00000000e-03
2.00000000e-03
2.00000000e-03
2.00000000e-03
2.00000000e-03
2.00000000e-03
2.00000000e-03
2.00000000e-03
2.00000000e-03
2.00000000e-03
2.00000000e-03
2.00000000e-03
2.00000000e-03
2.00000000e-03
2.00000000e-03
2.00000000e-03
2.00000000e-03
2.00000000e-03
2.00000000e-03
2.00000000e-03
2.00000000e-03
2.00000000e-03
2.00000000e-03
2.00000000e-03
2.00000000e-03
2.00000000e-03
2.00000000e-03
2.00000000e-03
2.00000000e-03
2.00000000e-03
2.00000000e-03
2.00000000e-03
2.00000000e-03
2.00000000e-03
2.00000000e-03
2.00000000e-03
2.00000000e-03
2.00000000e-03
2.00000000e-03
2.00000000e-03
