# vtk DataFile Version 2.0
Particle data
ASCII
DATASET POLYDATA
POINTS 469 double
2.54997000e-02	1.35395000e-02	1.39593000e-02
4.77512000e-03	-2.02497000e-02	1.28804000e-02
3.99195000e-02	-1.44021000e-04	1.39460000e-02
1.94651000e-02	-1.96338000e-02	1.21553000e-02
-9.92161000e-04	-3.03969000e-02	8.21460000e-03
3.23977000e-02	1.45639000e-02	1.99986000e-03
3.80631000e-02	1.22529000e-02	1.79112000e-02
2.30281000e-02	-1.76101000e-02	1.80329000e-02
3.77925000e-02	-1.30704000e-02	1.71778000e-02
1.52671000e-02	-3.69301000e-02	1.52599000e-02
2.37088000e-02	1.05794000e-02	5.73332000e-03
2.18886000e-02	1.13838000e-02	1.75440000e-02
3.02857000e-02	-2.59899000e-02	7.96742000e-03
1.01755000e-02	-2.30501000e-02	8.89039000e-03
4.19881000e-03	-1.63269000e-02	1.21607000e-02
1.47391000e-02	-3.27541000e-02	1.12432000e-02
1.46901000e-02	-1.31743000e-02	1.10941000e-02
3.10038000e-02	1.08329000e-02	2.36502000e-03
1.88361000e-02	-9.59683000e-03	1.39196000e-02
3.30769000e-02	1.83051000e-02	5.46876000e-03
2.13128000e-02	1.22250000e-02	2.31331000e-03
3.58915000e-02	-6.03385000e-03	1.81004000e-02
1.95039000e-03	-3.99419000e-02	1.99999000e-03
3.82819000e-02	1.90808000e-03	5.17811000e-03
3.35318000e-02	8.45303000e-03	5.56246000e-03
1.05925000e-02	-3.85034000e-02	1.48096000e-02
2.79020000e-04	-2.19226000e-02	1.78441000e-02
3.58733000e-02	4.87849000e-03	1.81000000e-02
1.15409000e-02	-3.05477000e-02	2.46794000e-03
2.68561000e-02	-1.87670000e-02	1.81024000e-02
1.92427000e-02	-1.82238000e-03	8.10466000e-03
3.80437000e-02	-1.20912000e-02	9.39399000e-03
2.41696000e-02	-1.23732000e-03	6.71259000e-03
3.02571000e-02	-1.10174000e-03	1.51293000e-02
2.62295000e-02	-2.54251000e-02	8.46572000e-03
2.82615000e-02	2.50155000e-03	1.44303000e-02
3.50941000e-02	1.77931000e-02	9.08646000e-03
-1.80912000e-02	-3.55801000e-02	1.31333000e-02
2.52011000e-02	8.79521000e-03	1.31312000e-02
2.23990000e-02	2.45231000e-03	2.02915000e-03
-2.46548000e-03	-3.68986000e-02	1.65888000e-02
3.66986000e-02	1.65010000e-03	1.58873000e-02
2.09661000e-02	-2.48994000e-02	2.09576000e-03
2.03323000e-02	1.50788000e-02	1.75915000e-02
2.76349000e-02	-4.06715000e-03	1.45032000e-02
1.33980000e-02	-3.51584000e-03	1.16778000e-02
9.52135000e-03	-1.52538000e-02	1.62664000e-02
-2.68220000e-03	-3.26406000e-02	1.32811000e-02
1.37680000e-02	-1.68768000e-02	1.38963000e-02
2.21092000e-02	1.86391000e-02	1.80437000e-02
1.67669000e-02	-2.23260000e-02	1.99987000e-03
1.29103000e-02	-1.77568000e-02	1.78341000e-02
-1.11648000e-02	-3.16104000e-02	1.38535000e-02
2.11746000e-02	-1.38433000e-02	2.00262000e-03
2.16615000e-02	-1.97848000e-02	5.65965000e-03
8.08032000e-03	-3.91393000e-02	1.80991000e-02
1.63992000e-02	-3.01827000e-02	5.95322000e-03
-8.49697000e-03	-3.03095000e-02	1.66606000e-02
2.80022000e-02	-1.36666000e-02	1.42779000e-02
2.72788000e-02	-1.75985000e-02	1.43024000e-02
3.08492000e-02	-1.55250000e-02	1.21615000e-02
3.03017000e-02	4.99100000e-04	1.14647000e-02
2.10975000e-02	-1.05537000e-02	1.81006000e-02
9.86481000e-03	-3.35271000e-02	1.35209000e-02
3.23920000e-02	3.65309000e-03	3.48524000e-03
1.05931000e-02	-3.21631000e-03	3.76902000e-03
6.47101000e-03	-3.94355000e-02	5.04316000e-03
2.85766000e-02	8.62002000e-03	1.60421000e-02
2.33626000e-02	-2.34976000e-02	6.44961000e-03
3.15705000e-02	-1.76280000e-02	1.99821000e-03
1.43138000e-03	-3.55614000e-02	1.41260000e-02
3.69243000e-02	-1.30973000e-02	5.68873000e-03
2.81980000e-02	2.13921000e-02	1.74860000e-02
3.04703000e-02	1.85185000e-02	1.40666000e-02
3.99592000e-02	-1.54710000e-03	2.09489000e-03
9.84719000e-04	-3.55549000e-02	1.81003000e-02
3.08178000e-02	-1.85246000e-02	5.82124000e-03
3.64418000e-02	1.60778000e-02	5.38076000e-03
3.01324000e-02	-2.62937000e-02	1.78931000e-02
1.35465000e-02	-3.30985000e-02	1.50429000e-02
-3.14011000e-03	-3.27606000e-02	1.73210000e-02
5.45916000e-03	-2.80026000e-02	1.24522000e-02
2.49815000e-02	-8.51147000e-03	8.02417000e-03
2.78824000e-02	-2.33655000e-03	1.81007000e-02
3.30083000e-02	-1.48331000e-02	4.49841000e-03
2.30121000e-02	2.08913000e-02	2.00058000e-03
6.81046000e-03	-2.12031000e-02	1.80942000e-02
-7.89567000e-03	-3.91800000e-02	2.00203000e-03
3.19530000e-02	4.84633000e-04	5.88567000e-03
2.35221000e-02	-1.51967000e-02	5.95823000e-03
6.08705000e-03	-8.33289000e-03	1.39560000e-02
1.97374000e-02	4.95315000e-03	3.67145000e-03
3.94347000e-02	-6.00510000e-03	9.07463000e-03
1.22390000e-02	1.29929000e-03	8.77472000e-03
2.82589000e-02	7.14025000e-03	1.10973000e-02
3.63379000e-02	-1.67013000e-02	1.80122000e-02
6.61617000e-03	-3.69972000e-02	8.52546000e-03
2.17478000e-02	-2.91183000e-02	1.35754000e-02
3.31788000e-02	-2.04427000e-03	1.03464000e-02
2.74818000e-02	1.05008000e-02	9.07263000e-03
2.46595000e-02	-2.32929000e-02	1.14621000e-02
2.11213000e-02	-6.55482000e-03	1.80559000e-02
3.43384000e-03	-3.76076000e-02	1.13332000e-02
3.17386000e-02	-1.17484000e-02	1.45992000e-02
2.95840000e-02	-2.13311000e-02	1.67028000e-02
1.59653000e-02	4.33205000e-03	8.29744000e-03
2.83493000e-02	3.27530000e-04	7.97853000e-03
2.94007000e-02	-1.81802000e-02	9.54406000e-03
2.05185000e-02	-2.09261000e-02	2.00016000e-03
9.00407000e-03	-1.47367000e-02	4.90168000e-03
1.63803000e-02	-3.38461000e-02	3.67222000e-03
1.01546000e-02	-1.10472000e-03	1.80917000e-02
-1.28917000e-02	-3.78346000e-02	1.30573000e-02
2.01810000e-02	-1.41010000e-02	7.87741000e-03
3.26393000e-02	-1.82219000e-02	1.80718000e-02
2.54269000e-02	-2.49316000e-02	1.99926000e-03
1.41133000e-02	3.22842000e-03	1.22707000e-02
1.09083000e-02	-3.84705000e-02	1.99913000e-03
1.08158000e-02	-2.66356000e-02	2.06066000e-03
3.92072000e-02	7.86886000e-03	1.99968000e-03
4.48396000e-03	-1.86415000e-02	2.41818000e-03
3.26168000e-02	-6.05602000e-03	1.20588000e-02
3.53854000e-02	1.86181000e-02	1.71449000e-02
2.84119000e-02	-2.22693000e-02	2.01206000e-03
3.88794000e-02	-9.33091000e-03	1.80899000e-02
1.94364000e-02	1.23708000e-02	1.35257000e-02
3.39204000e-02	1.24376000e-02	5.35568000e-03
3.29375000e-02	1.60039000e-02	1.20399000e-02
7.15497000e-03	-3.63955000e-02	1.41731000e-02
-1.18502000e-03	-3.47678000e-02	2.04813000e-03
1.09259000e-02	-3.44718000e-02	2.00221000e-03
3.55824000e-02	-1.81929000e-02	9.49870000e-03
-9.95879000e-03	-2.89394000e-02	9.64560000e-03
3.63772000e-02	1.05516000e-02	8.03162000e-03
2.33682000e-02	-3.78325000e-03	9.69171000e-03
2.84060000e-02	-2.80146000e-02	1.31037000e-02
9.11000000e-03	-1.75549000e-02	1.13435000e-02
3.73580000e-02	1.38295000e-02	1.99993000e-03
3.51895000e-02	-1.29260000e-02	1.28212000e-02
2.26331000e-02	3.61689000e-03	1.66011000e-02
2.68547000e-02	-2.40106000e-02	1.81002000e-02
2.70467000e-02	2.02304000e-02	1.25772000e-02
1.25506000e-02	-1.09580000e-02	1.39569000e-02
-1.35539000e-03	-2.48135000e-02	9.79654000e-03
3.06034000e-02	1.47466000e-02	5.56985000e-03
3.34180000e-02	2.12416000e-02	2.73267000e-03
-2.78086000e-03	-3.62954000e-02	5.40248000e-03
2.66022000e-02	7.62571000e-03	2.00008000e-03
2.18781000e-02	-7.44264000e-03	1.03128000e-02
2.41207000e-02	-3.18996000e-02	1.80723000e-02
6.31588000e-03	-3.16107000e-02	1.40693000e-02
3.01517000e-02	-4.25491000e-03	8.95266000e-03
3.26727000e-02	1.30174000e-02	9.37378000e-03
-8.76560000e-04	-2.57611000e-02	1.80898000e-02
1.72781000e-02	-1.83600000e-02	1.99904000e-03
4.85564000e-03	-3.96548000e-02	1.44662000e-02
3.50485000e-02	1.05637000e-02	2.00677000e-03
1.29900000e-02	-2.80542000e-02	5.23890000e-03
3.32813000e-02	-2.21687000e-02	1.81008000e-02
2.12025000e-02	-8.48027000e-04	4.05826000e-03
3.59871000e-02	6.39225000e-03	9.01428000e-03
3.49692000e-02	1.76281000e-02	2.00009000e-03
2.63202000e-02	-1.22748000e-02	7.82335000e-03
-7.21874000e-03	-3.93173000e-02	1.80432000e-02
2.53065000e-02	-5.41565000e-03	5.51310000e-03
2.27406000e-02	1.25637000e-03	9.49601000e-03
1.94350000e-02	-1.80390000e-02	8.48708000e-03
3.71588000e-02	1.43710000e-02	8.92653000e-03
1.60872000e-02	-3.26582000e-02	1.81004000e-02
1.01552000e-02	-3.86582000e-02	7.67996000e-03
3.93204000e-02	7.30608000e-03	1.66888000e-02
2.34592000e-02	-3.23881000e-02	1.99969000e-03
1.39287000e-04	-2.96444000e-02	1.80260000e-02
1.96500000e-02	2.57308000e-03	1.32438000e-02
3.14845000e-02	1.91402000e-02	1.80998000e-02
3.99225000e-02	-2.06753000e-03	9.58003000e-03
2.96148000e-02	6.86478000e-04	2.00005000e-03
3.34775000e-02	-1.48025000e-02	9.23414000e-03
3.76597000e-02	-3.31297000e-03	1.48665000e-02
3.73940000e-02	-5.90100000e-03	5.63623000e-03
1.22980000e-02	-3.05850000e-02	8.31598000e-03
2.92896000e-02	3.68360000e-03	6.01779000e-03
1.29626000e-02	1.14777000e-02	1.80989000e-02
-8.13113000e-03	-3.90991000e-02	1.39856000e-02
3.03036000e-02	3.79311000e-03	1.81003000e-02
3.31699000e-02	9.08589000e-03	9.91960000e-03
1.56740000e-02	-1.05287000e-02	2.07375000e-03
3.52984000e-02	3.31557000e-03	1.14750000e-02
2.65744000e-02	1.77466000e-02	1.78300000e-02
3.46765000e-02	6.58120000e-03	1.99972000e-03
2.20962000e-02	-2.09696000e-02	9.45503000e-03
2.41400000e-02	-3.93156000e-03	1.80962000e-02
-2.62991000e-03	-3.98977000e-02	2.00677000e-03
1.90572000e-03	-1.10056000e-02	1.58171000e-02
8.22181000e-03	-2.60046000e-02	5.04254000e-03
1.58813000e-02	-2.52882000e-02	1.19563000e-02
3.36902000e-02	-3.04081000e-03	1.44575000e-02
2.70213000e-02	-2.60850000e-03	1.08201000e-02
1.35362000e-02	-2.43893000e-02	6.74445000e-03
1.84148000e-02	-3.47148000e-02	1.41722000e-02
-1.84236000e-03	-2.57405000e-02	1.39922000e-02
2.65441000e-03	-3.21038000e-02	1.25311000e-02
3.53518000e-03	-3.86353000e-02	1.81007000e-02
3.55471000e-02	-7.86215000e-03	1.45600000e-02
2.30536000e-02	-2.80457000e-02	1.79936000e-02
2.85853000e-04	-3.39606000e-02	6.59324000e-03
-2.33198000e-04	-3.99824000e-02	1.80999000e-02
6.80924000e-03	-1.95825000e-02	6.12494000e-03
1.83258000e-02	-2.89319000e-03	1.39195000e-02
1.46270000e-02	-2.55848000e-02	1.57477000e-02
2.58893000e-02	-2.17533000e-02	1.49427000e-02
2.26130000e-02	-1.75485000e-02	2.44948000e-03
2.57073000e-02	-3.05747000e-02	1.45743000e-02
3.21939000e-02	-7.11597000e-03	1.66079000e-02
2.29917000e-02	-1.01169000e-04	1.80302000e-02
1.34062000e-02	-6.65669000e-03	3.56174000e-03
[...]
POINT_DATA 469
SCALARS Radius double 1
LOOKUP_TABLE default
2.00000000e-03
2.00000000e-03
2.00000000e-03
2.00000000e-03
2.00000000e-03
2.00000000e-03
2.00000000e-03
2.00000000e-03
2.00000000e-03
2.00000000e-03
2.00000000e-03
2.00000000e-03
2.00000000e-03
2.00000000e-03
2.00000000e-03
2.00000000e-03
2.00000000e-03
2.00000000e-03
2.00000000e-03
2.00000000e-03
2.00000000e-03
2.00000000e-03
2.00000000e-03
2.00000000e-03
2.00000000e-03
2.00000000e-03
2.00000000e-03
2.00000000e-03
2.00000000e-03
2.00000000e-03
2.00000000e-03
2.00000000e-03
2.00000000e-03
2.00000000e-03
2.00000000e-03
2.00000000e-03
2.00000000e-03
2.00000000e-03
2.00000000e-03
2.00000000e-03
2.00000000e-03
2.00000000e-03
2.00000000e-03
2.00000000e-03
2.00000000e-03
2.00000000e-03
2.00000000e-03
2.00000000e-03
2.00000000e-03
2.00000000e-03
2.00000000e-03
2.00000000e-03
2.00000000e-03
2.00000000e-03
2.00000000e-03
2.00000000e-03
2.00000000e-03
2.00000000e-03
2.00000000e-03
2.00000000e-03
2.00000000e-03
2.00000000e-03
2.00000000e-03
2.00000000e-03
2.00000000e-03
2.00000000e-03
2.00000000e-03
2.00000000e-03
2.00000000e-03
2.00000000e-03
2.00000000e-03
2.00000000e-03
2.00000000e-03
2.00000000e-03
2.00000000e-03
2.00000000e-03
2.00000000e-03
2.00000000e-03
2.00000000e-03
2.00000000e-03
2.00000000e-03
2.00000000e-03
2.00000000e-03
2.00000000e-03
2.00000000e-03
2.00000000e-03
2.00000000e-03
2.00000000e-03
2.00000000e-03
2.00000000e-03
2.00000000e-03
2.00000000e-03
2.00000000e-03
2.00000000e-03
2.00000000e-03
2.00000000e-03
2.00000000e-03
2.00000000e-03
2.00000000e-03
2.00000000e-03
2.00000000e-03
2.00000000e-03
2.00000000e-03
2.00000000e-03
2.00000000e-03
2.00000000e-03
2.00000000e-03
2.00000000e-03
2.00000000e-03
2.00000000e-03
2.00000000e-03
2.00000000e-03
2.00000000e-03
2.00000000e-03
2.00000000e-03
2.00000000e-03
2.00000000e-03
2.00000000e-03
2.00000000e-03
2.00000000e-03
2.00000000e-03
2.00000000e-03
2.00000000e-03
2.00000000e-03
2.00000000e-03
2.00000000e-03
2.00000000e-03
2.00000000e-03
2.00000000e-03
2.00000000e-03
2.00000000e-03
2.00000000e-03
2.00000000e-03
2.00000000e-03
2.00000000e-03
2.00000000e-03
2.00000000e-03
2.00000000e-03
2.00000000e-03
2.00000000e-03
2.00000000e-03
2.00000000e-03
2.00000000e-03
2.00000000e-03
2.00000000e-03
2.00000000e-03
2.00000000e-03
2.00000000e-03
2.00000000e-03
2.00000000e-03
2.00000000e-03
2.00000000e-03
2.00000000e-03
2.00000000e-03
2.00000000e-03
2.00000000e-03
2.00000000e-03
2.00000000e-03
2.00000000e-03
2.00000000e-03
2.00000000e-03
2.00000000e-03
2.00000000e-03
2.00000000e-03
2.00000000e-03
2.00000000e-03
2.00000000e-03
2.00000000e-03
2.00000000e-03
2.00000000e-03
2.00000000e-03
2.00000000e-03
2.00000000e-03
2.00000000e-03
2.00000000e-03
2.00000000e-03
2.00000000e-03
2.00000000e-03
2.00000000e-03
2.00000000e-03
2.00000000e-03
2.00000000e-03
2.00000000e-03
2.00000000e-03
2.00000000e-03
2.00000000e-03
2.00000000e-03
2.00000000e-03
2.00000000e-03
2.00000000e-03
2.00000000e-03
2.00000000e-03
2.00000000e-03
2.00000000e-03
2.00000000e-03
2.00000000e-03
2.00000000e-03
2.00000000e-03
2.00000000e-03
2.00000000e-03
2.00000000e-03
2.00000000e-03
2.00000000e-03
2.00000000e-03
2.00000000e-03
2.00000000e-03
2.00000000e-03
2.00000000e-03
2.00000000e-03
2.00000000e-03
2.00000000e-03
2.00000000e-03
2.00000000e-03
2.00000000e-03
2.00000000e-03
2.00000000e-03
2.00000000e-03
2.00000000e-03
2.00000000e-03
2.00000000e-03
2.00000000e-03
2.00000000e-03
2.00000000e-03
2.00000000e-03
2.00000000e-03
2.00000000e-03
2.00000000e-03
2.00000000e-03
2.00000000e-03
2.00000000e-03
2.00000000e-03
2.00000000e-03
2.00000000e-03
2.00000000e-03
2.00000000e-03
2.00000000e-03
2.00000000e-03
2.00000000e-03
2.00000000e-03
2.00000000e-03
2.00000000e-03
2.00000000e-03
2.00000000e-03
2.00000000e-03
2.00000000e-03
2.00000000e-03
2.00000000e-03
2.00000000e-03
2.00000000e-03
2.00000000e-03
2.00000000e-03
2.00000000e-03
2.00000000e-03
2.00000000e-03
2.00000000e-03
2.00000000e-03
2.00000000e-03
2.00000000e-03
2.00000000e-03
2.00000000e-03
2.00000000e-03
2.00000000e-03
2.00000000e-03
2.00000000e-03
2.00000000e-03
2.00000000e-03
2.00000000e-03
2.00000000e-03
2.00000000e-03
2.00000000e-03
2.00000000e-03
2.00000000e-03
2.00000000e-03
2.00000000e-03
2.00000000e-03
2.00000000e-03
2.00000000e-03
2.00000000e-03
2.00000000e-03
2.00000000e-03
2.00000000e-03
2.00000000e-03
2.00000000e-03
2.00000000e-03
2.00000000e-03
2.00000000e-03
2.00000000e-03
2.00000000e-03
2.00000000e-03
2.00000000e-03
2.00000000e-03
2.00000000e-03
2.00000000e-03
2.00000000e-03
2.00000000e-03
2.00000000e-03
2.00000000e-03
2.00000000e-03
2.00000000e-03
2.00000000e-03
2.00000000e-03
2.00000000e-03
2.00000000e-03
2.00000000e-03
2.00000000e-03
2.00000000e-03
2.00000000e-03
2.00000000e-03
2.00000000e-03
2.00000000e-03
2.00000000e-03
2.00000000e-03
2.00000000e-03
2.00000000e-03
2.00000000e-03
2.00000000e-03
2.00000000e-03
2.00000000e-03
2.00000000e-03
2.00000000e-03
2.00000000e-03
2.00000000e-03
2.00000000e-03
2.00000000e-03
2.00000000e-03
2.00000000e-03
2.00000000e-03
2.00000000e-03
2.00000000e-03
2.00000000e-03
2.00000000e-03
2.00000000e-03
2.00000000e-03
2.00000000e-03
2.00000000e-03
2.00000000e-03
2.00000000e-03
2.00000000e-03
2.00000000e-03
2.00000000e-03
2.00000000e-03
2.00000000e-03
2.00000000e-03
2.00000000e-03
2.00000000e-03
2.00000000e-03
2.00000000e-03
2.00000000e-03
2.00000000e-03
2.00000000e-03
2.00000000e-03
2.00000000e-03
2.00000000e-03
2.00000000e-03
2.00000000e-03
2.00000000e-03
2.00000000e-03
2.00000000e-03
2.00000000e-03
2.00000000e-03
2.00000000e-03
2.00000000e-03
2.00000000e-03
2.00000000e-03
2.00000000e-03
2.00000000e-03
2.00000000e-03
2.00000000e-03
2.00000000e-03
2.00000000e-03
2.00000000e-03
2.00000000e-03
2.00000000e-03
2.00000000e-03
2.00000000e-03
2.00000000e-03
2.00000000e-03
2.00000000e-03
2.00000000e-03
2.00000000e-03
2.00000000e-03
2.00000000e-03
2.00000000e-03
2.00000000e-03
2.00000000e-03
2.00000000e-03
2.00000000e-03
2.00000000e-03
2.00000000e-03
2.00000000e-03
2.00000000e-03
2.00000000e-03
2.00000000e-03
2.00000000e-03
2.00000000e-03
2.00000000e-03
2.00000000e-03
2.00000000e-03
2.00000000e-03
2.00000000e-03
2.00000000e-03
2.00000000e-03
2.00000000e-03
2.00000000e-03
2.00000000e-03
2.00000000e-03
2.00000000e-03
2.00000000e-03
2.00000000e-03
2.00000000e-03
2.00000000e-03
2.00000000e-03
2.00000000e-03
2.00000000e-03
2.00000000e-03
2.00000000e-03
2.00000000e-03
2.00000000e-03
2.00000000e-03
2.00000000e-03
2.00000000e-03
2.00000000e-03
2.00000000e-03
2.00000000e-03
2.00000000e-03
2.00000000e-03
2.00000000e-03
2.00000000e-03
2.00000000e-03
2.00000000e-03
2.00000000e-03
2.00000000e-03
2.00000000e-03
2.00000000e-03
2.00000000e-03
2.00000000e-03
2.00000000e-03
2.00000000e-03
2.00000000e-03
2.00000000e-03
2.00000000e-03
2.00000000e-03
2.00000000e-03
2.00000000e-03
2.00000000e-03
2.00000000e-03
2.00000000e-03
2.00000000e-03
2.00000000e-03
2.00000000e-03
2.00000000e-03
2.00000000e-03
2.00000000e-03
2.00000000e-03
2.00000000e-03
2.00000000e-03
2.00000000e-03
2.00000000e-03
2.00000000e-03
2.00000000e-03
2.00000000e-03
2.00000000e-03
2.00000000e-03
2.00000000e-03
2.00000000e-03
2.00000000e-03
2.00000000e-03
2.00000000e-03
2.00000000e-03
