# vtk DataFile Version 2.0
Particle data
ASCII
DATASET POLYDATA
POINTS 469 double
-2.57221000e-03	-3.43934000e-02	9.14760000e-03
2.19574000e-02	1.63292000e-03	1.48988000e-02
3.12898000e-02	9.48196000e-03	1.99916000e-03
3.49624000e-02	-1.93769000e-02	1.79960000e-02
3.01052000e-02	9.36385000e-03	5.81790000e-03
-2.56832000e-03	-3.98967000e-02	2.56767000e-03
-2.91785000e-03	-2.99991000e-02	1.22752000e-02
1.71316000e-02	-2.38985000e-02	1.76473000e-02
2.21529000e-02	1.57569000e-02	1.72011000e-02
3.63467000e-02	-4.09366000e-03	1.08074000e-02
1.83996000e-03	-3.99488000e-02	1.78245000e-02
6.98449000e-03	-1.83640000e-02	1.76786000e-02
1.81224000e-02	1.24759000e-02	1.41288000e-02
3.70378000e-02	1.50685000e-02	2.00713000e-03
2.68522000e-04	-3.99364000e-02	1.40776000e-02
3.07152000e-02	-1.41073000e-02	1.23165000e-02
2.96508000e-02	-2.16276000e-02	1.41866000e-02
2.13971000e-02	6.99082000e-03	2.00062000e-03
1.88306000e-02	-2.59237000e-02	1.40029000e-02
5.93144000e-03	-3.74977000e-02	1.09109000e-02
1.01940000e-02	-3.51112000e-02	2.00529000e-03
2.37917000e-02	6.47688000e-03	1.80957000e-02
3.45611000e-02	-1.47854000e-02	1.10898000e-02
1.52369000e-02	-1.63833000e-02	2.00889000e-03
2.89357000e-02	-5.24489000e-04	2.00157000e-03
3.72229000e-02	-7.18156000e-03	1.45409000e-02
1.88010000e-02	-3.52635000e-02	1.44407000e-02
1.28870000e-02	-1.18421000e-02	1.38363000e-02
3.03874000e-02	-2.59793000e-02	1.70415000e-02
1.45402000e-02	-1.56897000e-02	1.42340000e-02
2.19320000e-02	1.02718000e-02	1.32787000e-02
-5.28243000e-03	-3.29801000e-02	2.04637000e-03
1.76796000e-02	7.57223000e-05	9.13384000e-03
2.52856000e-02	-1.36532000e-03	1.76448000e-02
2.70475000e-02	-8.88135000e-03	9.16856000e-03
3.67524000e-02	1.34886000e-02	1.18910000e-02
-1.99606000e-03	-3.76032000e-02	5.79389000e-03
2.17367000e-02	-2.88829000e-02	9.21214000e-03
1.25665000e-02	-1.61902000e-02	1.04861000e-02
2.58852000e-02	-7.83365000e-03	2.42603000e-03
1.85666000e-02	-3.12038000e-02	8.03538000e-03
1.04974000e-02	9.76060000e-03	1.40203000e-02
3.24175000e-02	1.44344000e-03	1.99971000e-03
9.40985000e-03	-1.91940000e-02	1.16369000e-02
3.50563000e-02	-9.97757000e-03	1.26044000e-02
1.09534000e-02	-3.41159000e-02	1.06968000e-02
9.34492000e-03	-2.80601000e-02	1.40937000e-02
7.75387000e-03	-2.83544000e-02	6.33131000e-03
1.45206000e-02	-1.91888000e-02	1.22710000e-02
1.07479000e-03	-2.55625000e-02	1.71863000e-02
2.12011000e-02	2.26295000e-03	1.09941000e-02
2.05384000e-02	1.52798000e-03	1.99988000e-03
3.37353000e-02	-1.27145000e-02	1.52041000e-02
1.82835000e-02	-2.25326000e-02	7.87857000e-03
3.81398000e-02	-1.17686000e-02	5.07747000e-03
2.84367000e-02	-2.80735000e-02	1.42461000e-02
3.53252000e-02	-7.58243000e-03	9.14346000e-03
9.90726000e-03	-3.19026000e-02	1.50502000e-02
3.97792000e-02	-4.10503000e-03	1.41537000e-02
3.65507000e-02	-2.13679000e-03	1.79822000e-02
3.81110000e-02	1.16056000e-02	1.70634000e-02
2.16308000e-02	-1.50567000e-02	1.13643000e-02
4.42092000e-03	-2.75560000e-02	1.80969000e-02
2.84402000e-02	-2.30376000e-02	9.91971000e-03
3.42594000e-02	1.82791000e-02	3.86374000e-03
8.94172000e-03	-3.89607000e-02	6.78459000e-03
3.46933000e-02	1.54178000e-03	5.30013000e-03
2.67445000e-02	1.10740000e-02	1.55904000e-02
3.93306000e-02	-6.73201000e-03	1.11715000e-02
3.48104000e-02	7.23510000e-03	1.03844000e-02
2.06632000e-02	-3.41655000e-02	6.35603000e-03
2.10545000e-02	1.23474000e-02	2.00085000e-03
1.79265000e-04	-3.42640000e-02	1.80991000e-02
1.55329000e-02	-3.37638000e-02	8.52360000e-03
3.25491000e-04	-2.66422000e-02	7.73031000e-03
1.72138000e-02	-3.49587000e-02	1.80997000e-02
2.01415000e-02	-2.67566000e-02	5.70622000e-03
1.62702000e-02	-1.25631000e-02	2.59020000e-03
2.71890000e-02	9.61737000e-03	2.62831000e-03
1.52364000e-02	-2.03238000e-02	1.81002000e-02
1.01848000e-02	-3.14455000e-02	5.47277000e-03
2.47862000e-02	-6.98090000e-03	6.37742000e-03
3.59586000e-02	-4.14944000e-04	2.05002000e-03
3.67623000e-02	7.92554000e-03	1.78641000e-02
2.78589000e-02	-4.37573000e-03	2.05108000e-03
9.06590000e-03	-3.89482000e-02	2.00002000e-03
-6.32836000e-03	-3.14998000e-02	1.08210000e-02
3.17698000e-02	-1.79044000e-02	1.29955000e-02
3.03635000e-02	1.75102000e-03	5.43816000e-03
2.47608000e-02	-1.97738000e-02	6.67885000e-03
1.30424000e-02	-3.44355000e-02	5.46688000e-03
2.16619000e-02	4.13691000e-03	4.81591000e-03
2.52043000e-02	3.37089000e-03	8.59192000e-03
2.03288000e-02	-3.43298000e-02	1.03441000e-02
3.28982000e-02	9.02846000e-03	1.81005000e-02
1.46277000e-02	-1.35302000e-03	3.24730000e-03
3.13122000e-02	-1.86363000e-02	8.88941000e-03
3.14504000e-02	-7.47050000e-03	1.80935000e-02
9.53692000e-03	-2.14211000e-02	1.81014000e-02
1.95696000e-02	-1.05113000e-02	1.35805000e-02
2.63742000e-02	-1.58007000e-02	1.99929000e-03
2.65938000e-02	-1.52574000e-02	1.10820000e-02
2.61758000e-02	-2.33460000e-02	1.32054000e-02
2.38622000e-02	1.22541000e-02	1.81001000e-02
3.41986000e-02	-1.14144000e-02	8.97245000e-03
1.04295000e-02	-2.42240000e-02	2.00364000e-03
3.02831000e-02	-1.49592000e-02	2.07661000e-03
1.68845000e-02	-2.00278000e-02	1.99948000e-03
3.57990000e-02	3.58036000e-03	2.00355000e-03
2.87488000e-02	1.58664000e-03	9.09404000e-03
2.78157000e-02	-1.87556000e-02	4.27551000e-03
1.32222000e-02	-3.46960000e-02	1.81002000e-02
7.31667000e-03	-3.32795000e-02	1.22031000e-02
3.11300000e-02	-1.94774000e-02	2.15100000e-03
3.35980000e-02	3.85959000e-03	1.81003000e-02
3.57868000e-02	-4.40956000e-03	1.99936000e-03
2.50238000e-02	-3.11542000e-02	1.00195000e-02
2.92595000e-02	-1.22130000e-02	9.10858000e-03
2.78963000e-02	1.45608000e-02	1.39995000e-02
1.55811000e-02	8.94379000e-03	8.26340000e-03
1.22816000e-03	-3.19516000e-02	2.00407000e-03
6.95294000e-03	-2.44668000e-02	1.79082000e-02
7.78212000e-03	-3.92192000e-02	1.65235000e-02
3.42273000e-02	7.02178000e-03	1.49050000e-02
1.91284000e-02	1.82506000e-02	1.79985000e-02
6.80207000e-03	-3.64597000e-02	4.44269000e-03
-5.63054000e-03	-3.95581000e-02	5.11805000e-03
2.71952000e-02	1.14284000e-02	1.16121000e-02
2.60124000e-02	-2.58069000e-02	8.29697000e-03
2.35155000e-02	-2.44269000e-02	1.99845000e-03
2.17544000e-02	-3.04116000e-02	5.51672000e-03
1.99968000e-02	1.98053000e-02	7.72888000e-03
1.20430000e-02	-3.04413000e-02	1.81002000e-02
2.98861000e-02	1.85592000e-02	1.42899000e-02
1.77765000e-02	-1.36304000e-02	1.18361000e-02
3.90548000e-02	5.03880000e-03	5.73773000e-03
2.66370000e-02	1.39226000e-02	5.98398000e-03
-5.26648000e-03	-3.69819000e-02	2.07795000e-03
3.04498000e-02	-1.06253000e-02	1.42653000e-02
2.20719000e-02	-2.85359000e-02	1.73064000e-02
3.61506000e-02	1.98033000e-03	1.56610000e-02
4.55161000e-03	-3.42317000e-02	1.99973000e-03
5.59929000e-03	-3.59108000e-02	1.46764000e-02
2.57220000e-02	-3.05617000e-02	6.12637000e-03
1.40569000e-03	-3.25500000e-02	8.67170000e-03
5.18150000e-03	-3.96592000e-02	2.67446000e-03
3.78877000e-02	-1.26415000e-02	1.05118000e-02
1.29187000e-03	-3.90181000e-02	1.99983000e-03
2.04321000e-02	-1.79637000e-02	8.87579000e-03
2.65603000e-02	-5.12848000e-03	1.81005000e-02
6.47876000e-03	-2.94096000e-02	1.16383000e-02
2.70297000e-02	-1.16738000e-02	1.80726000e-02
-8.67500000e-03	-3.89522000e-02	1.17478000e-02
1.46779000e-02	-3.71688000e-02	1.53139000e-02
1.52558000e-02	-1.08393000e-02	1.04543000e-02
1.44619000e-02	-2.27899000e-02	1.05344000e-02
-9.45469000e-03	-3.87586000e-02	6.08690000e-03
2.82344000e-02	3.41029000e-03	2.15292000e-03
3.08740000e-02	1.95606000e-02	2.00626000e-03
5.53534000e-03	-2.86771000e-02	2.92570000e-03
2.12926000e-02	1.30344000e-02	6.31068000e-03
-8.70188000e-03	-3.90290000e-02	2.00030000e-03
3.99237000e-02	-1.08450000e-04	1.41011000e-02
2.46508000e-02	-2.30814000e-02	1.81000000e-02
3.20036000e-02	-6.51708000e-03	1.99952000e-03
2.19058000e-02	-2.30082000e-03	1.56190000e-02
1.38457000e-02	-1.61173000e-02	6.10135000e-03
1.78036000e-03	-3.51606000e-02	4.73052000e-03
3.28664000e-02	-2.27824000e-02	1.80899000e-02
2.80942000e-02	-1.65798000e-02	7.61883000e-03
-3.96875000e-03	-3.97181000e-02	8.95635000e-03
3.97019000e-02	-1.70836000e-03	2.60854000e-03
1.02344000e-02	-2.61298000e-02	1.07047000e-02
-6.27840000e-03	-3.25308000e-02	1.55573000e-02
1.50386000e-02	-8.86173000e-03	3.47837000e-03
-8.68539000e-03	-3.58418000e-02	1.44183000e-02
9.12412000e-03	-1.37149000e-02	9.13003000e-03
2.63002000e-02	1.82087000e-02	1.80405000e-02
-1.16019000e-02	-3.57363000e-02	1.80778000e-02
2.09737000e-02	-1.97554000e-02	5.34122000e-03
3.36823000e-02	-2.15073000e-02	1.43805000e-02
1.76559000e-02	-1.76198000e-02	5.99749000e-03
1.20868000e-02	-1.30105000e-02	1.76718000e-02
3.52643000e-02	-1.86499000e-02	7.08470000e-03
2.12975000e-02	-7.76541000e-03	1.59177000e-02
-1.24818000e-02	-3.79587000e-02	1.00799000e-02
2.12674000e-03	-3.65739000e-02	1.24763000e-02
1.96658000e-02	1.35605000e-02	1.02448000e-02
7.80739000e-03	-2.96407000e-02	1.76593000e-02
5.10806000e-03	-2.39883000e-02	3.04662000e-03
3.50750000e-02	-1.02131000e-02	1.80769000e-02
3.43562000e-02	-4.39666000e-03	1.46763000e-02
3.84576000e-02	-1.09839000e-02	1.44511000e-02
3.10930000e-02	-2.51431000e-02	7.79206000e-03
1.53508000e-02	-2.08628000e-02	5.59712000e-03
2.24895000e-02	-1.97226000e-02	1.78826000e-02
3.15144000e-02	-3.36749000e-03	1.06491000e-02
1.67920000e-02	-9.45742000e-03	7.02697000e-03
9.94734000e-03	-2.23961000e-02	9.29399000e-03
3.96581000e-02	-5.06703000e-03	1.80344000e-02
1.64314000e-02	-3.63768000e-02	1.14149000e-02
9.39044000e-03	-3.50015000e-02	7.11956000e-03
2.42518000e-02	-2.23199000e-02	9.85247000e-03
2.38961000e-02	2.13877000e-02	1.77037000e-02
3.70715000e-02	-1.47505000e-02	1.43566000e-02
7.63937000e-03	-3.16910000e-02	8.54735000e-03
1.21646000e-02	-2.03248000e-02	1.52948000e-02
2.05187000e-02	-3.28342000e-02	1.73411000e-02
2.96321000e-02	1.64603000e-02	5.14978000e-03
1.69897000e-02	-2.94290000e-02	1.45707000e-02
3.67542000e-02	4.72810000e-03	1.28192000e-02
3.42621000e-02	-1.15751000e-02	1.99971000e-03
3.99448000e-02	-2.80519000e-04	6.33764000e-03
2.72517000e-02	-1.39867000e-02	1.48165000e-02
2.92933000e-02	1.89279000e-02	1.03515000e-02
3.48040000e-02	5.53860000e-03	5.37144000e-03
[...]
POINT_DATA 469
SCALARS Radius double 1
LOOKUP_TABLE default
2.00000000e-03
2.00000000e-03
2.00000000e-03
2.00000000e-03
2.00000000e-03
2.00000000e-03
2.00000000e-03
2.00000000e-03
2.00000000e-03
2.00000000e-03
2.00000000e-03
2.00000000e-03
2.00000000e-03
2.00000000e-03
2.00000000e-03
2.00000000e-03
2.00000000e-03
2.00000000e-03
2.00000000e-03
2.00000000e-03
2.00000000e-03
2.00000000e-03
2.00000000e-03
2.00000000e-03
2.00000000e-03
2.00000000e-03
2.00000000e-03
2.00000000e-03
2.00000000e-03
2.00000000e-03
2.00000000e-03
2.00000000e-03
2.00000000e-03
2.00000000e-03
2.00000000e-03
2.00000000e-03
2.00000000e-03
2.00000000e-03
2.00000000e-03
2.00000000e-03
2.00000000e-03
2.00000000e-03
2.00000000e-03
2.00000000e-03
2.00000000e-03
2.00000000e-03
2.00000000e-03
2.00000000e-03
2.00000000e-03
2.00000000e-03
2.00000000e-03
2.00000000e-03
2.00000000e-03
2.00000000e-03
2.00000000e-03
2.00000000e-03
2.00000000e-03
2.00000000e-03
2.00000000e-03
2.00000000e-03
2.00000000e-03
2.00000000e-03
2.00000000e-03
2.00000000e-03
2.00000000e-03
2.00000000e-03
2.00000000e-03
2.00000000e-03
2.00000000e-03
2.00000000e-03
2.00000000e-03
2.00000000e-03
2.00000000e-03
2.00000000e-03
2.00000000e-03
2.00000000e-03
2.00000000e-03
2.00000000e-03
2.00000000e-03
2.00000000e-03
2.00000000e-03
2.00000000e-03
2.00000000e-03
2.00000000e-03
2.00000000e-03
2.00000000e-03
2.00000000e-03
2.00000000e-03
2.00000000e-03
2.00000000e-03
2.00000000e-03
2.00000000e-03
2.00000000e-03
2.00000000e-03
2.00000000e-03
2.00000000e-03
2.00000000e-03
2.00000000e-03
2.00000000e-03
2.00000000e-03
2.00000000e-03
2.00000000e-03
2.00000000e-03
2.00000000e-03
2.00000000e-03
2.00000000e-03
2.00000000e-03
2.00000000e-03
2.00000000e-03
2.00000000e-03
2.00000000e-03
2.00000000e-03
2.00000000e-03
2.00000000e-03
2.00000000e-03
2.00000000e-03
2.00000000e-03
2.00000000e-03
2.00000000e-03
2.00000000e-03
2.00000000e-03
2.00000000e-03
2.00000000e-03
2.00000000e-03
2.00000000e-03
2.00000000e-03
2.00000000e-03
2.00000000e-03
2.00000000e-03
2.00000000e-03
2.00000000e-03
2.00000000e-03
2.00000000e-03
2.00000000e-03
2.00000000e-03
2.00000000e-03
2.00000000e-03
2.00000000e-03
2.00000000e-03
2.00000000e-03
2.00000000e-03
2.00000000e-03
2.00000000e-03
2.00000000e-03
2.00000000e-03
2.00000000e-03
2.00000000e-03
2.00000000e-03
2.00000000e-03
2.00000000e-03
2.00000000e-03
2.00000000e-03
2.00000000e-03
2.00000000e-03
2.00000000e-03
2.00000000e-03
2.00000000e-03
2.00000000e-03
2.00000000e-03
2.00000000e-03
2.00000000e-03
2.00000000e-03
2.00000000e-03
2.00000000e-03
2.00000000e-03
2.00000000e-03
2.00000000e-03
2.00000000e-03
2.00000000e-03
2.00000000e-03
2.00000000e-03
2.00000000e-03
2.00000000e-03
2.00000000e-03
2.00000000e-03
2.00000000e-03
2.00000000e-03
2.00000000e-03
2.00000000e-03
2.00000000e-03
2.00000000e-03
2.00000000e-03
2.00000000e-03
2.00000000e-03
2.00000000e-03
2.00000000e-03
2.00000000e-03
2.00000000e-03
2.00000000e-03
2.00000000e-03
2.00000000e-03
2.00000000e-03
2.00000000e-03
2.00000000e-03
2.00000000e-03
2.00000000e-03
2.00000000e-03
2.00000000e-03
2.00000000e-03
2.00000000e-03
2.00000000e-03
2.00000000e-03
2.00000000e-03
2.00000000e-03
2.00000000e-03
2.00000000e-03
2.00000000e-03
2.00000000e-03
2.00000000e-03
2.00000000e-03
2.00000000e-03
2.00000000e-03
2.00000000e-03
2.00000000e-03
2.00000000e-03
2.00000000e-03
2.00000000e-03
2.00000000e-03
2.00000000e-03
2.00000000e-03
2.00000000e-03
2.00000000e-03
2.00000000e-03
2.00000000e-03
2.00000000e-03
2.00000000e-03
2.00000000e-03
2.00000000e-03
2.00000000e-03
2.00000000e-03
2.00000000e-03
2.00000000e-03
2.00000000e-03
2.00000000e-03
2.00000000e-03
2.00000000e-03
2.00000000e-03
2.00000000e-03
2.00000000e-03
2.00000000e-03
2.00000000e-03
2.00000000e-03
2.00000000e-03
2.00000000e-03
2.00000000e-03
2.00000000e-03
2.00000000e-03
2.00000000e-03
2.00000000e-03
2.00000000e-03
2.00000000e-03
2.00000000e-03
2.00000000e-03
2.00000000e-03
2.00000000e-03
2.00000000e-03
2.00000000e-03
2.00000000e-03
2.00000000e-03
2.00000000e-03
2.00000000e-03
2.00000000e-03
2.00000000e-03
2.00000000e-03
2.00000000e-03
2.00000000e-03
2.00000000e-03
2.00000000e-03
2.00000000e-03
2.00000000e-03
2.00000000e-03
2.00000000e-03
2.00000000e-03
2.00000000e-03
2.00000000e-03
2.00000000e-03
2.00000000e-03
2.00000000e-03
2.00000000e-03
2.00000000e-03
2.00000000e-03
2.00000000e-03
2.00000000e-03
2.00000000e-03
2.00000000e-03
2.00000000e-03
2.00000000e-03
2.00000000e-03
2.00000000e-03
2.00000000e-03
2.00000000e-03
2.00000000e-03
2.00000000e-03
2.00000000e-03
2.00000000e-03
2.00000000e-03
2.00000000e-03
2.00000000e-03
2.00000000e-03
2.00000000e-03
2.00000000e-03
2.00000000e-03
2.00000000e-03
2.00000000e-03
2.00000000e-03
2.00000000e-03
2.00000000e-03
2.00000000e-03
2.00000000e-03
2.00000000e-03
2.00000000e-03
2.00000000e-03
2.00000000e-03
2.00000000e-03
2.00000000e-03
2.00000000e-03
2.00000000e-03
2.00000000e-03
2.00000000e-03
2.00000000e-03
2.00000000e-03
2.00000000e-03
2.00000000e-03
2.00000000e-03
2.00000000e-03
2.00000000e-03
2.00000000e-03
2.00000000e-03
2.00000000e-03
2.00000000e-03
2.00000000e-03
2.00000000e-03
2.00000000e-03
2.00000000e-03
2.00000000e-03
2.00000000e-03
2.00000000e-03
2.00000000e-03
2.00000000e-03
2.00000000e-03
2.00000000e-03
2.00000000e-03
2.00000000e-03
2.00000000e-03
2.00000000e-03
2.00000000e-03
2.00000000e-03
2.00000000e-03
2.00000000e-03
2.00000000e-03
2.00000000e-03
2.00000000e-03
2.00000000e-03
2.00000000e-03
2.00000000e-03
2.00000000e-03
2.00000000e-03
2.00000000e-03
2.00000000e-03
2.00000000e-03
2.00000000e-03
2.00000000e-03
2.00000000e-03
2.00000000e-03
2.00000000e-03
2.00000000e-03
2.00000000e-03
2.00000000e-03
2.00000000e-03
2.00000000e-03
2.00000000e-03
2.00000000e-03
2.00000000e-03
2.00000000e-03
2.00000000e-03
2.00000000e-03
2.00000000e-03
2.00000000e-03
2.00000000e-03
2.00000000e-03
2.00000000e-03
2.00000000e-03
2.00000000e-03
2.00000000e-03
2.00000000e-03
2.00000000e-03
2.00000000e-03
2.00000000e-03
2.00000000e-03
2.00000000e-03
2.00000000e-03
2.00000000e-03
2.00000000e-03
2.00000000e-03
2.00000000e-03
2.00000000e-03
2.00000000e-03
2.00000000e-03
2.00000000e-03
2.00000000e-03
2.00000000e-03
2.00000000e-03
2.00000000e-03
2.00000000e-03
2.00000000e-03
2.00000000e-03
2.00000000e-03
2.00000000e-03
2.00000000e-03
2.00000000e-03
2.00000000e-03
2.00000000e-03
2.00000000e-03
2.00000000e-03
2.00000000e-03
2.00000000e-03
2.00000000e-03
2.00000000e-03
2.00000000e-03
2.00000000e-03
2.00000000e-03
2.00000000e-03
2.00000000e-03
2.00000000e-03
2.00000000e-03
2.00000000e-03
2.00000000e-03
2.00000000e-03
2.00000000e-03
2.00000000e-03
2.00000000e-03
2.00000000e-03
2.00000000e-03
2.00000000e-03
2.00000000e-03
2.00000000e-03
2.00000000e-03
2.00000000e-03
2.00000000e-03
2.00000000e-03
2.00000000e-03
2.00000000e-03
2.00000000e-03
2.00000000e-03
2.00000000e-03
2.00000000e-03
2.00000000e-03
2.00000000e-03
2.00000000e-03
2.00000000e-03
2.00000000e-03
2.00000000e-03
2.00000000e-03
2.00000000e-03
2.00000000e-03
2.00000000e-03
2.00000000e-03
2.00000000e-03
2.00000000e-03
2.00000000e-03
2.00000000e-03
2.00000000e-03
2.00000000e-03
2.00000000e-03
2.00000000e-03
2.00000000e-03
2.00000000e-03
2.00000000e-03
2.00000000e-03
