# vtk DataFile Version 2.0
Particle data
ASCII
DATASET POLYDATA
POINTS 469 double
3.16920000e-02	1.47607000e-02	1.43742000e-02
1.38059000e-02	-1.94636000e-03	1.16084000e-02
3.94568000e-02	-6.07918000e-03	1.40263000e-02
1.64743000e-02	-2.23709000e-02	1.21946000e-02
7.01976000e-03	-1.87210000e-02	7.41320000e-03
3.41908000e-02	9.64093000e-03	2.00001000e-03
3.93930000e-02	6.89016000e-03	1.78787000e-02
2.01320000e-02	-2.08331000e-02	1.80716000e-02
3.54065000e-02	-1.85741000e-02	1.71873000e-02
9.40022000e-03	-3.88394000e-02	1.53285000e-02
2.85023000e-02	1.54517000e-02	7.37494000e-03
2.71141000e-02	9.64512000e-03	1.77438000e-02
2.60248000e-02	-3.02624000e-02	7.88440000e-03
8.30191000e-03	-2.19201000e-02	9.46816000e-03
1.50661000e-02	3.67350000e-03	1.18846000e-02
9.57318000e-03	-3.46651000e-02	1.12635000e-02
1.78666000e-02	-9.74858000e-03	1.22573000e-02
3.23156000e-02	6.12906000e-03	2.39118000e-03
2.12733000e-02	-6.88034000e-03	1.45028000e-02
3.62026000e-02	1.43752000e-02	5.54604000e-03
2.76947000e-02	1.62162000e-02	2.03593000e-03
3.45891000e-02	-1.14169000e-02	1.81004000e-02
-2.77335000e-03	-3.87536000e-02	2.00287000e-03
3.80972000e-02	-3.80858000e-03	5.21625000e-03
3.47004000e-02	3.80627000e-03	5.60074000e-03
5.46218000e-03	-3.95597000e-02	1.44342000e-02
1.21304000e-02	4.07986000e-03	1.54415000e-02
3.62073000e-02	-3.08811000e-04	1.81002000e-02
6.95032000e-03	-3.20106000e-02	2.36256000e-03
2.36837000e-02	-2.26711000e-02	1.81027000e-02
2.27753000e-02	4.42188000e-03	8.29879000e-03
3.57873000e-02	-1.76837000e-02	9.35602000e-03
2.58601000e-02	1.04469000e-03	7.62425000e-03
2.99542000e-02	-5.36031000e-03	1.52121000e-02
2.21825000e-02	-2.91372000e-02	8.45216000e-03
2.84901000e-02	-1.71825000e-03	1.44048000e-02
3.68619000e-02	1.50397000e-02	9.49758000e-03
-1.47703000e-02	-3.15867000e-02	8.64198000e-03
2.97453000e-02	8.85202000e-03	1.43030000e-02
2.55576000e-02	9.66858000e-03	3.20644000e-03
-6.15526000e-03	-3.44215000e-02	1.46023000e-02
3.64839000e-02	-3.49785000e-03	1.57022000e-02
1.69825000e-02	-2.78391000e-02	2.09968000e-03
2.76111000e-02	1.65387000e-02	1.79296000e-02
2.69932000e-02	-7.95335000e-03	1.44554000e-02
2.28267000e-02	1.00376000e-02	1.16521000e-02
1.65722000e-02	-5.71657000e-04	1.48266000e-02
5.48014000e-03	-1.70885000e-02	1.32859000e-02
1.55293000e-02	-1.34679000e-02	1.57648000e-02
2.93287000e-02	2.01470000e-02	1.80974000e-02
1.32517000e-02	-2.47235000e-02	1.99961000e-03
1.36292000e-02	-1.81869000e-02	1.74640000e-02
-6.45191000e-03	-2.63391000e-02	1.62862000e-02
1.89465000e-02	-1.68945000e-02	1.99975000e-03
1.85125000e-02	-2.28623000e-02	5.62830000e-03
2.50232000e-03	-3.61831000e-02	1.80998000e-02
1.15541000e-02	-3.23852000e-02	5.94883000e-03
3.55390000e-03	-1.60973000e-02	1.77996000e-02
2.56731000e-02	-1.77146000e-02	1.43047000e-02
2.43728000e-02	-2.14946000e-02	1.43453000e-02
2.82729000e-02	-1.99112000e-02	1.20866000e-02
3.03584000e-02	-3.82737000e-03	1.15231000e-02
1.92089000e-02	-1.34990000e-02	1.79993000e-02
4.72361000e-03	-3.44077000e-02	1.34482000e-02
3.25958000e-02	-1.17694000e-03	3.52758000e-03
2.05505000e-02	8.60480000e-03	6.42057000e-03
6.73084000e-04	-3.99363000e-02	5.19896000e-03
3.03832000e-02	5.36470000e-03	1.61620000e-02
1.97383000e-02	-2.67351000e-02	6.38961000e-03
2.84984000e-02	-2.22719000e-02	1.99904000e-03
-1.19982000e-03	-3.40414000e-02	1.31382000e-02
3.45360000e-02	-1.84552000e-02	5.63678000e-03
3.34112000e-02	1.99397000e-02	1.77888000e-02
3.49564000e-02	1.72564000e-02	1.42372000e-02
3.93011000e-02	-7.39783000e-03	2.09780000e-03
-1.19274000e-03	-3.15600000e-02	1.68252000e-02
2.76885000e-02	-2.29644000e-02	5.85350000e-03
3.84267000e-02	1.10499000e-02	5.55449000e-03
2.58022000e-02	-3.05547000e-02	1.79211000e-02
8.36576000e-03	-3.47647000e-02	1.50723000e-02
-9.10081000e-03	-3.07716000e-02	1.80691000e-02
8.51046000e-03	-1.96725000e-02	1.29813000e-02
2.39938000e-02	-1.20095000e-02	7.72130000e-03
2.73679000e-02	-6.34709000e-03	1.80993000e-02
3.04488000e-02	-1.95848000e-02	4.46052000e-03
2.99691000e-02	2.12516000e-02	2.00023000e-03
1.24727000e-02	-1.13187000e-02	1.80689000e-02
-1.24253000e-02	-3.80172000e-02	2.00822000e-03
3.16725000e-02	-4.28132000e-03	5.87366000e-03
2.13445000e-02	-1.83878000e-02	6.23907000e-03
1.97749000e-02	1.21710000e-02	1.31896000e-02
2.60978000e-02	1.32485000e-02	4.93838000e-03
3.81381000e-02	-1.17149000e-02	9.05323000e-03
2.30783000e-02	1.93406000e-02	6.32595000e-03
2.91087000e-02	2.85564000e-03	1.11406000e-02
3.34115000e-02	-2.19741000e-02	1.80116000e-02
7.97131000e-04	-3.71903000e-02	8.22219000e-03
1.73171000e-02	-3.20754000e-02	1.35850000e-02
3.25279000e-02	-6.98599000e-03	1.03768000e-02
2.90916000e-02	6.57385000e-03	9.66820000e-03
2.10238000e-02	-2.67345000e-02	1.14304000e-02
1.99181000e-02	-9.56521000e-03	1.78844000e-02
-1.64946000e-03	-3.76051000e-02	1.13795000e-02
2.95780000e-02	-1.64812000e-02	1.45993000e-02
2.59812000e-02	-2.56227000e-02	1.66917000e-02
2.63844000e-02	1.65869000e-02	1.06684000e-02
2.81225000e-02	-3.77712000e-03	7.80292000e-03
2.63741000e-02	-2.23890000e-02	9.58604000e-03
1.71533000e-02	-2.38448000e-02	1.99885000e-03
1.87687000e-02	5.17130000e-03	7.69825000e-03
1.09035000e-02	-3.60038000e-02	3.67346000e-03
1.85750000e-02	7.57040000e-03	1.78301000e-02
-1.15628000e-02	-3.32848000e-02	1.13130000e-02
1.82315000e-02	-1.65254000e-02	7.94479000e-03
2.95505000e-02	-2.30161000e-02	1.80893000e-02
2.13280000e-02	-2.85241000e-02	1.99966000e-03
2.48007000e-02	1.53305000e-02	1.42728000e-02
4.84212000e-03	-3.96912000e-02	1.99967000e-03
8.55078000e-03	-2.65553000e-02	2.16025000e-03
3.99462000e-02	1.79640000e-03	1.99917000e-03
1.38440000e-02	3.67603000e-04	2.62548000e-03
3.13682000e-02	-1.07929000e-02	1.20295000e-02
3.76815000e-02	1.33606000e-02	1.72745000e-02
2.46781000e-02	-2.63390000e-02	1.99916000e-03
3.70463000e-02	-1.50418000e-02	1.81000000e-02
2.87809000e-02	1.74940000e-02	1.41416000e-02
3.59705000e-02	7.89505000e-03	5.66636000e-03
3.52327000e-02	1.10571000e-02	1.19978000e-02
1.87055000e-03	-3.70942000e-02	1.42564000e-02
-4.82740000e-03	-3.29731000e-02	2.01749000e-03
5.64032000e-03	-3.57723000e-02	1.99982000e-03
3.25541000e-02	-2.31629000e-02	9.53363000e-03
3.34357000e-03	-1.25351000e-02	1.58204000e-02
3.77077000e-02	5.08212000e-03	7.91753000e-03
2.41368000e-02	-2.66298000e-03	7.40134000e-03
2.38375000e-02	-3.20037000e-02	1.30807000e-02
1.83316000e-02	-9.80341000e-04	1.04703000e-02
3.89016000e-02	9.27791000e-03	1.99999000e-03
3.30021000e-02	-1.77432000e-02	1.29507000e-02
2.41913000e-02	2.35097000e-04	1.69523000e-02
2.29165000e-02	-2.77906000e-02	1.81005000e-02
3.32760000e-02	1.92962000e-02	1.12347000e-02
1.94996000e-02	-3.29542000e-03	1.45208000e-02
1.11099000e-02	-2.69191000e-04	8.77012000e-03
3.27042000e-02	1.02122000e-02	5.67748000e-03
3.58336000e-02	1.76273000e-02	2.29245000e-03
-5.07937000e-03	-3.56758000e-02	4.95700000e-03
2.92361000e-02	8.65078000e-03	1.99988000e-03
2.28710000e-02	-6.94932000e-03	1.08328000e-02
1.90166000e-02	-3.51777000e-02	1.80973000e-02
3.94982000e-03	-2.61285000e-02	1.38286000e-02
2.91856000e-02	-8.70170000e-03	9.00504000e-03
3.45176000e-02	8.09611000e-03	9.40641000e-03
5.20719000e-03	-1.98937000e-02	1.80991000e-02
1.44065000e-02	-2.08959000e-02	2.10492000e-03
-9.32437000e-04	-3.99379000e-02	1.45480000e-02
3.62983000e-02	6.24157000e-03	2.03891000e-03
8.85267000e-03	-2.96125000e-02	4.93724000e-03
2.94877000e-02	-2.70145000e-02	1.81008000e-02
2.36512000e-02	5.43506000e-03	4.51904000e-03
3.65671000e-02	9.57030000e-04	9.05902000e-03
3.74928000e-02	1.30215000e-02	2.01013000e-03
2.45695000e-02	-1.59667000e-02	7.77776000e-03
-1.34178000e-02	-3.76533000e-02	1.80338000e-02
2.46571000e-02	-8.88055000e-03	5.32039000e-03
2.54511000e-02	4.70668000e-03	1.16937000e-02
1.67242000e-02	-2.07765000e-02	8.53496000e-03
3.89562000e-02	8.76298000e-03	8.86148000e-03
1.09746000e-02	-3.46291000e-02	1.81003000e-02
4.08382000e-03	-3.97672000e-02	7.69229000e-03
3.99735000e-02	1.16367000e-03	1.66464000e-02
1.81286000e-02	-3.56469000e-02	1.99947000e-03
4.05334000e-03	-2.57078000e-02	1.79708000e-02
2.39946000e-02	6.92848000e-03	1.48178000e-02
3.59686000e-02	1.68797000e-02	1.81001000e-02
3.91867000e-02	-7.88705000e-03	9.54642000e-03
2.92868000e-02	-3.43899000e-03	2.00141000e-03
3.12858000e-02	-1.93702000e-02	9.51220000e-03
3.67732000e-02	-8.91551000e-03	1.48920000e-02
3.60986000e-02	-1.14120000e-02	5.62588000e-03
7.86798000e-03	-3.18670000e-02	8.10673000e-03
2.95191000e-02	-4.95728000e-04	5.99349000e-03
2.33155000e-02	2.03971000e-02	1.81000000e-02
-1.04604000e-02	-3.55428000e-02	1.44635000e-02
3.07095000e-02	-6.27305000e-04	1.81006000e-02
3.42808000e-02	4.13273000e-03	9.88415000e-03
1.54583000e-02	-1.29765000e-02	2.00051000e-03
3.54486000e-02	-2.00001000e-03	1.15072000e-02
3.16371000e-02	1.63452000e-02	1.80469000e-02
3.55902000e-02	2.30527000e-03	1.99974000e-03
1.88102000e-02	-2.40715000e-02	9.42900000e-03
2.34371000e-02	-7.47409000e-03	1.80828000e-02
-8.51544000e-03	-3.90753000e-02	2.27917000e-03
1.78315000e-02	1.32408000e-02	1.65254000e-02
8.47964000e-03	-2.29000000e-02	4.95247000e-03
1.21252000e-02	-2.74796000e-02	1.19394000e-02
3.28768000e-02	-7.97859000e-03	1.44370000e-02
2.68204000e-02	-6.10166000e-03	1.09141000e-02
1.01436000e-02	-2.61643000e-02	6.55464000e-03
1.27900000e-02	-3.70406000e-02	1.42009000e-02
1.09559000e-02	-7.56150000e-03	1.40338000e-02
6.28580000e-04	-2.83245000e-02	1.42290000e-02
-2.50643000e-03	-3.82853000e-02	1.80176000e-02
3.40255000e-02	-1.30142000e-02	1.44774000e-02
1.86025000e-02	-3.11994000e-02	1.80906000e-02
-2.54042000e-03	-3.28125000e-02	6.12058000e-03
-6.27677000e-03	-3.94685000e-02	1.72144000e-02
1.50201000e-02	-3.06625000e-03	4.30639000e-03
2.24761000e-02	3.10105000e-03	1.44808000e-02
1.06341000e-02	-2.53137000e-02	1.66982000e-02
2.23683000e-02	-2.53900000e-02	1.49489000e-02
1.97096000e-02	-2.07980000e-02	2.41829000e-03
2.07823000e-02	-3.41034000e-02	1.45824000e-02
3.08360000e-02	-1.16536000e-02	1.64702000e-02
2.32354000e-02	-3.47946000e-03	1.80941000e-02
2.06934000e-02	-1.42486000e-03	3.65742000e-03
[...]
POINT_DATA 469
SCALARS Radius double 1
LOOKUP_TABLE default
2.00000000e-03
2.00000000e-03
2.00000000e-03
2.00000000e-03
2.00000000e-03
2.00000000e-03
2.00000000e-03
2.00000000e-03
2.00000000e-03
2.00000000e-03
2.00000000e-03
2.00000000e-03
2.00000000e-03
2.00000000e-03
2.00000000e-03
2.00000000e-03
2.00000000e-03
2.00000000e-03
2.00000000e-03
2.00000000e-03
2.00000000e-03
2.00000000e-03
2.00000000e-03
2.00000000e-03
2.00000000e-03
2.00000000e-03
2.00000000e-03
2.00000000e-03
2.00000000e-03
2.00000000e-03
2.00000000e-03
2.00000000e-03
2.00000000e-03
2.00000000e-03
2.00000000e-03
2.00000000e-03
2.00000000e-03
2.00000000e-03
2.00000000e-03
2.00000000e-03
2.00000000e-03
2.00000000e-03
2.00000000e-03
2.00000000e-03
2.00000000e-03
2.00000000e-03
2.00000000e-03
2.00000000e-03
2.00000000e-03
2.00000000e-03
2.00000000e-03
2.00000000e-03
2.00000000e-03
2.00000000e-03
2.00000000e-03
2.00000000e-03
2.00000000e-03
2.00000000e-03
2.00000000e-03
2.00000000e-03
2.00000000e-03
2.00000000e-03
2.00000000e-03
2.00000000e-03
2.00000000e-03
2.00000000e-03
2.00000000e-03
2.00000000e-03
2.00000000e-03
2.00000000e-03
2.00000000e-03
2.00000000e-03
2.00000000e-03
2.00000000e-03
2.00000000e-03
2.00000000e-03
2.00000000e-03
2.00000000e-03
2.00000000e-03
2.00000000e-03
2.00000000e-03
2.00000000e-03
2.00000000e-03
2.00000000e-03
2.00000000e-03
2.00000000e-03
2.00000000e-03
2.00000000e-03
2.00000000e-03
2.00000000e-03
2.00000000e-03
2.00000000e-03
2.00000000e-03
2.00000000e-03
2.00000000e-03
2.00000000e-03
2.00000000e-03
2.00000000e-03
2.00000000e-03
2.00000000e-03
2.00000000e-03
2.00000000e-03
2.00000000e-03
2.00000000e-03
2.00000000e-03
2.00000000e-03
2.00000000e-03
2.00000000e-03
2.00000000e-03
2.00000000e-03
2.00000000e-03
2.00000000e-03
2.00000000e-03
2.00000000e-03
2.00000000e-03
2.00000000e-03
2.00000000e-03
2.00000000e-03
2.00000000e-03
2.00000000e-03
2.00000000e-03
2.00000000e-03
2.00000000e-03
2.00000000e-03
2.00000000e-03
2.00000000e-03
2.00000000e-03
2.00000000e-03
2.00000000e-03
2.00000000e-03
2.00000000e-03
2.00000000e-03
2.00000000e-03
2.00000000e-03
2.00000000e-03
2.00000000e-03
2.00000000e-03
2.00000000e-03
2.00000000e-03
2.00000000e-03
2.00000000e-03
2.00000000e-03
2.00000000e-03
2.00000000e-03
2.00000000e-03
2.00000000e-03
2.00000000e-03
2.00000000e-03
2.00000000e-03
2.00000000e-03
2.00000000e-03
2.00000000e-03
2.00000000e-03
2.00000000e-03
2.00000000e-03
2.00000000e-03
2.00000000e-03
2.00000000e-03
2.00000000e-03
2.00000000e-03
2.00000000e-03
2.00000000e-03
2.00000000e-03
2.00000000e-03
2.00000000e-03
2.00000000e-03
2.00000000e-03
2.00000000e-03
2.00000000e-03
2.00000000e-03
2.00000000e-03
2.00000000e-03
2.00000000e-03
2.00000000e-03
2.00000000e-03
2.00000000e-03
2.00000000e-03
2.00000000e-03
2.00000000e-03
2.00000000e-03
2.00000000e-03
2.00000000e-03
2.00000000e-03
2.00000000e-03
2.00000000e-03
2.00000000e-03
2.00000000e-03
2.00000000e-03
2.00000000e-03
2.00000000e-03
2.00000000e-03
2.00000000e-03
2.00000000e-03
2.00000000e-03
2.00000000e-03
2.00000000e-03
2.00000000e-03
2.00000000e-03
2.00000000e-03
2.00000000e-03
2.00000000e-03
2.00000000e-03
2.00000000e-03
2.00000000e-03
2.00000000e-03
2.00000000e-03
2.00000000e-03
2.00000000e-03
2.00000000e-03
2.00000000e-03
2.00000000e-03
2.00000000e-03
2.00000000e-03
2.00000000e-03
2.00000000e-03
2.00000000e-03
2.00000000e-03
2.00000000e-03
2.00000000e-03
2.00000000e-03
2.00000000e-03
2.00000000e-03
2.00000000e-03
2.00000000e-03
2.00000000e-03
2.00000000e-03
2.00000000e-03
2.00000000e-03
2.00000000e-03
2.00000000e-03
2.00000000e-03
2.00000000e-03
2.00000000e-03
2.00000000e-03
2.00000000e-03
2.00000000e-03
2.00000000e-03
2.00000000e-03
2.00000000e-03
2.00000000e-03
2.00000000e-03
2.00000000e-03
2.00000000e-03
2.00000000e-03
2.00000000e-03
2.00000000e-03
2.00000000e-03
2.00000000e-03
2.00000000e-03
2.00000000e-03
2.00000000e-03
2.00000000e-03
2.00000000e-03
2.00000000e-03
2.00000000e-03
2.00000000e-03
2.00000000e-03
2.00000000e-03
2.00000000e-03
2.00000000e-03
2.00000000e-03
2.00000000e-03
2.00000000e-03
2.00000000e-03
2.00000000e-03
2.00000000e-03
2.00000000e-03
2.00000000e-03
2.00000000e-03
2.00000000e-03
2.00000000e-03
2.00000000e-03
2.00000000e-03
2.00000000e-03
2.00000000e-03
2.00000000e-03
2.00000000e-03
2.00000000e-03
2.00000000e-03
2.00000000e-03
2.00000000e-03
2.00000000e-03
2.00000000e-03
2.00000000e-03
2.00000000e-03
2.00000000e-03
2.00000000e-03
2.00000000e-03
2.00000000e-03
2.00000000e-03
2.00000000e-03
2.00000000e-03
2.00000000e-03
2.00000000e-03
2.00000000e-03
2.00000000e-03
2.00000000e-03
2.00000000e-03
2.00000000e-03
2.00000000e-03
2.00000000e-03
2.00000000e-03
2.00000000e-03
2.00000000e-03
2.00000000e-03
2.00000000e-03
2.00000000e-03
2.00000000e-03
2.00000000e-03
2.00000000e-03
2.00000000e-03
2.00000000e-03
2.00000000e-03
2.00000000e-03
2.00000000e-03
2.00000000e-03
2.00000000e-03
2.00000000e-03
2.00000000e-03
2.00000000e-03
2.00000000e-03
2.00000000e-03
2.00000000e-03
2.00000000e-03
2.00000000e-03
2.00000000e-03
2.00000000e-03
2.00000000e-03
2.00000000e-03
2.00000000e-03
2.00000000e-03
2.00000000e-03
2.00000000e-03
2.00000000e-03
2.00000000e-03
2.00000000e-03
2.00000000e-03
2.00000000e-03
2.00000000e-03
2.00000000e-03
2.00000000e-03
2.00000000e-03
2.00000000e-03
2.00000000e-03
2.00000000e-03
2.00000000e-03
2.00000000e-03
2.00000000e-03
2.00000000e-03
2.00000000e-03
2.00000000e-03
2.00000000e-03
2.00000000e-03
2.00000000e-03
2.00000000e-03
2.00000000e-03
2.00000000e-03
2.00000000e-03
2.00000000e-03
2.00000000e-03
2.00000000e-03
2.00000000e-03
2.00000000e-03
2.00000000e-03
2.00000000e-03
2.00000000e-03
2.00000000e-03
2.00000000e-03
2.00000000e-03
2.00000000e-03
2.00000000e-03
2.00000000e-03
2.00000000e-03
2.00000000e-03
2.00000000e-03
2.00000000e-03
2.00000000e-03
2.00000000e-03
2.00000000e-03
2.00000000e-03
2.00000000e-03
2.00000000e-03
2.00000000e-03
2.00000000e-03
2.00000000e-03
2.00000000e-03
2.00000000e-03
2.00000000e-03
2.00000000e-03
2.00000000e-03
2.00000000e-03
2.00000000e-03
2.00000000e-03
2.00000000e-03
2.00000000e-03
2.00000000e-03
2.00000000e-03
2.00000000e-03
2.00000000e-03
2.00000000e-03
2.00000000e-03
2.00000000e-03
2.00000000e-03
2.00000000e-03
2.00000000e-03
2.00000000e-03
2.00000000e-03
2.00000000e-03
2.00000000e-03
2.00000000e-03
2.00000000e-03
2.00000000e-03
2.00000000e-03
2.00000000e-03
2.00000000e-03
2.00000000e-03
2.00000000e-03
2.00000000e-03
2.00000000e-03
2.00000000e-03
2.00000000e-03
2.00000000e-03
2.00000000e-03
2.00000000e-03
2.00000000e-03
2.00000000e-03
2.00000000e-03
2.00000000e-03
2.00000000e-03
2.00000000e-03
2.00000000e-03
2.00000000e-03
2.00000000e-03
2.00000000e-03
2.00000000e-03
2.00000000e-03
2.00000000e-03
2.00000000e-03
2.00000000e-03
2.00000000e-03
2.00000000e-03
2.00000000e-03
2.00000000e-03
2.00000000e-03
2.00000000e-03
2.00000000e-03
2.00000000e-03
2.00000000e-03
2.00000000e-03
2.00000000e-03
2.00000000e-03
2.00000000e-03
2.00000000e-03
2.00000000e-03
2.00000000e-03
2.00000000e-03
2.00000000e-03
2.00000000e-03
2.00000000e-03
2.00000000e-03
2.00000000e-03
2.00000000e-03
2.00000000e-03
2.00000000e-03
2.00000000e-03
2.00000000e-03
2.00000000e-03
2.00000000e-03
2.00000000e-03
