# vtk DataFile Version 2.0
Particle data
ASCII
DATASET POLYDATA
POINTS 469 double
6.57132000e-03	-7.88695000e-03	8.46091000e-03
2.10179000e-02	2.74430000e-03	1.38709000e-02
2.65611000e-02	4.49431000e-03	6.02378000e-03
2.08519000e-02	-2.66587000e-02	1.04127000e-02
1.64313000e-02	-2.69361000e-03	2.17031000e-03
6.41160000e-03	-4.98821000e-03	3.54960000e-03
1.01038000e-02	-3.46958000e-03	1.80752000e-02
2.18981000e-02	-2.08422000e-02	1.81000000e-02
3.35978000e-02	1.26449000e-02	1.81004000e-02
3.15800000e-02	-2.13074000e-02	1.81008000e-02
8.33561000e-04	-2.83700000e-02	3.99268000e-03
1.83619000e-02	5.98157000e-03	1.75093000e-02
3.97384000e-02	4.11895000e-03	1.22066000e-02
2.20879000e-02	3.36971000e-03	4.57993000e-03
-3.90494000e-05	-2.81170000e-02	1.37419000e-02
2.93409000e-02	-2.71085000e-02	1.02456000e-02
2.18376000e-02	-1.64258000e-02	5.62139000e-03
2.94683000e-02	1.68670000e-02	1.99993000e-03
2.10913000e-02	-1.94717000e-02	1.36915000e-02
-8.95095000e-03	-3.54420000e-02	5.88360000e-03
-1.14035000e-04	-3.17003000e-02	1.99789000e-03
3.50292000e-02	8.64932000e-03	1.76805000e-02
2.26447000e-02	-3.29527000e-02	2.00588000e-03
1.85543000e-02	-6.08196000e-03	2.07412000e-03
2.27255000e-02	3.81738000e-04	1.99929000e-03
3.12069000e-02	-1.81208000e-02	8.52465000e-03
2.97600000e-03	-3.98697000e-02	1.53192000e-02
3.15438000e-02	1.30895000e-02	1.23431000e-02
1.57197000e-02	-3.30098000e-02	1.12677000e-02
2.23875000e-02	-1.61277000e-02	1.54615000e-02
2.74352000e-02	1.07938000e-02	9.58266000e-03
3.13082000e-02	2.16208000e-02	1.99954000e-03
2.44634000e-02	1.47216000e-02	3.82263000e-03
2.84136000e-02	8.44081000e-04	1.80539000e-02
3.80703000e-02	-1.20515000e-02	1.07757000e-02
3.03817000e-02	8.36649000e-03	1.07774000e-02
-6.50242000e-04	-9.04505000e-03	1.00589000e-02
1.09890000e-02	-3.83465000e-02	9.51155000e-03
1.61287000e-02	8.80149000e-04	1.20648000e-02
1.13678000e-02	-1.19273000e-02	3.30840000e-03
1.20945000e-02	-3.47486000e-02	1.08625000e-02
3.02048000e-02	1.90172000e-02	1.42467000e-02
3.80066000e-02	-1.24053000e-02	2.48161000e-03
6.61267000e-03	-1.97646000e-02	1.77433000e-02
2.77328000e-02	-9.33230000e-03	1.60925000e-02
-2.80883000e-03	-3.36014000e-02	8.72763000e-03
1.55861000e-02	-1.58598000e-02	1.14857000e-02
4.20911000e-03	-3.62736000e-02	1.40815000e-02
1.62526000e-02	-2.30411000e-02	1.08828000e-02
-1.00838000e-02	-3.61041000e-02	1.80853000e-02
2.22608000e-02	-1.90526000e-02	2.62461000e-03
1.57288000e-02	-1.93262000e-02	9.49875000e-03
7.02426000e-03	-3.92989000e-02	1.14341000e-02
1.83220000e-02	-1.86871000e-02	2.02016000e-03
2.83782000e-02	-2.29865000e-02	1.15682000e-02
1.92054000e-02	-2.88911000e-02	1.52534000e-02
3.17462000e-02	-2.42213000e-02	8.87570000e-03
2.62182000e-03	-3.30060000e-02	1.76608000e-02
3.54428000e-02	-7.42493000e-03	1.44102000e-02
3.03266000e-02	-1.20277000e-02	1.46729000e-02
3.61951000e-02	-5.03698000e-03	1.79686000e-02
2.88485000e-02	-2.86782000e-03	1.10787000e-02
1.20126000e-02	-1.97777000e-02	1.78276000e-02
2.21018000e-02	-3.01595000e-02	8.93796000e-03
3.16808000e-02	6.12601000e-03	4.68367000e-03
5.30392000e-04	-3.21783000e-02	5.93255000e-03
3.64376000e-02	-1.64719000e-02	3.19961000e-03
2.30280000e-02	1.05557000e-02	1.80988000e-02
3.33136000e-02	-1.60424000e-02	5.82929000e-03
3.99581000e-02	8.60637000e-04	9.80058000e-03
1.18594000e-02	-3.20652000e-02	6.51932000e-03
3.58382000e-02	8.45631000e-03	1.99968000e-03
-1.39324000e-02	-3.74861000e-02	1.80970000e-02
-1.08420000e-02	-3.83683000e-02	1.32627000e-02
2.45846000e-02	1.78520000e-02	6.40903000e-03
1.10320000e-02	-3.27638000e-02	1.81008000e-02
1.97161000e-02	-1.95183000e-02	7.00883000e-03
6.29216000e-03	-1.38270000e-02	1.38174000e-02
3.99802000e-02	-6.20316000e-04	1.81004000e-02
2.83179000e-02	-2.82375000e-02	1.81006000e-02
3.95614000e-03	-3.32903000e-02	9.40862000e-03
2.93888000e-02	-8.52823000e-04	7.66624000e-03
2.85336000e-02	-3.81432000e-03	2.00067000e-03
2.80914000e-02	-5.89183000e-03	1.81000000e-02
3.31830000e-02	-7.25340000e-03	1.99998000e-03
-5.95079000e-03	-3.69302000e-02	2.00033000e-03
2.23640000e-02	1.36269000e-02	1.42471000e-02
2.56763000e-02	-3.06355000e-02	1.09732000e-02
3.67246000e-02	-1.85884000e-03	6.63023000e-03
2.97156000e-02	-1.54419000e-02	4.18827000e-03
-9.41198000e-04	-3.99649000e-02	1.03879000e-02
4.96845000e-03	-2.32885000e-02	5.83929000e-03
3.51382000e-02	9.40129000e-03	6.20414000e-03
2.02089000e-03	-3.99379000e-02	2.27105000e-03
2.21527000e-02	3.14541000e-03	8.57252000e-03
3.64000000e-02	1.38969000e-02	7.60175000e-03
2.34053000e-02	-3.24016000e-02	5.89388000e-03
3.23863000e-02	-1.68216000e-02	1.21223000e-02
2.37210000e-02	-5.49251000e-04	1.80975000e-02
1.80861000e-02	-3.31964000e-03	9.70918000e-03
2.73609000e-02	-1.63860000e-02	7.28746000e-03
2.88407000e-02	-1.54437000e-02	1.08877000e-02
1.39204000e-02	-3.42356000e-02	1.57593000e-02
3.98246000e-02	3.32471000e-03	1.74594000e-02
3.00556000e-02	-1.34514000e-02	7.64014000e-03
-5.26772000e-03	-3.95965000e-02	9.80677000e-03
2.19074000e-02	-1.26145000e-02	6.83005000e-03
2.51191000e-02	-1.41332000e-02	4.85261000e-03
3.26606000e-02	-1.70536000e-02	2.01500000e-03
1.29216000e-02	-1.52460000e-02	8.53742000e-03
2.86655000e-02	-2.38296000e-02	1.99996000e-03
-9.35885000e-04	-3.47796000e-02	1.81005000e-02
7.64931000e-03	-3.08020000e-02	1.72613000e-02
2.25387000e-02	-2.50719000e-02	1.99799000e-03
3.22358000e-02	-1.27932000e-03	1.45536000e-02
3.10566000e-02	-1.08061000e-02	1.99975000e-03
-2.15578000e-03	-3.99324000e-02	1.54694000e-02
3.10790000e-02	-2.50502000e-02	4.94692000e-03
2.01206000e-02	-3.48076000e-04	1.14872000e-02
2.83968000e-02	1.79183000e-02	7.62641000e-03
4.25112000e-03	-2.76767000e-02	2.00009000e-03
2.35987000e-02	-1.25745000e-02	1.40814000e-02
-2.17347000e-02	-3.34489000e-02	1.37439000e-02
3.95936000e-02	-5.59065000e-03	5.71004000e-03
3.90307000e-02	8.67990000e-03	1.81001000e-02
-6.95381000e-03	-3.93374000e-02	1.39958000e-02
1.78864000e-02	1.01900000e-02	6.98056000e-03
1.49119000e-02	4.71787000e-03	1.24907000e-02
1.88204000e-02	-3.02607000e-02	1.12227000e-02
8.82016000e-03	-3.08544000e-02	2.22196000e-03
1.86939000e-02	-2.63577000e-02	1.99953000e-03
3.88820000e-02	8.84578000e-03	4.65190000e-03
5.58909000e-03	-2.36146000e-02	1.81002000e-02
2.86108000e-02	1.58060000e-02	1.24726000e-02
1.67077000e-02	-1.39330000e-02	3.87134000e-03
3.93386000e-02	-6.72689000e-03	1.29188000e-02
2.61765000e-02	8.70538000e-03	4.42045000e-03
4.15137000e-03	-8.77905000e-03	2.00560000e-03
2.27302000e-02	-1.42096000e-02	1.04050000e-02
1.90716000e-02	-2.23710000e-02	1.57165000e-02
3.24725000e-02	-5.09463000e-03	1.57304000e-02
-8.50603000e-03	-3.72695000e-02	1.01485000e-02
1.15282000e-02	-2.31960000e-02	1.36613000e-02
6.77272000e-03	-3.93790000e-02	2.42680000e-03
4.72278000e-03	-1.94993000e-02	7.35986000e-03
-9.00714000e-03	-3.42663000e-02	2.00807000e-03
2.58277000e-02	-3.05303000e-02	1.99991000e-03
1.06544000e-02	-6.06547000e-03	2.05448000e-03
2.10867000e-02	-1.05640000e-02	1.02136000e-02
2.88295000e-02	-1.63861000e-02	1.47964000e-02
8.63569000e-03	-2.05105000e-02	1.43076000e-02
2.64824000e-02	-8.80221000e-03	8.77546000e-03
1.62189000e-02	1.06568000e-02	1.06316000e-02
1.41796000e-03	-3.39272000e-02	1.24337000e-02
2.01323000e-02	-2.31179000e-02	8.69939000e-03
2.38508000e-02	-2.59038000e-02	1.41540000e-02
2.01321000e-02	1.17893000e-02	3.96512000e-03
1.80123000e-02	-9.07124000e-03	6.33638000e-03
3.99357000e-02	7.41988000e-04	1.43402000e-02
1.44584000e-02	7.86373000e-04	2.26499000e-03
3.26815000e-02	1.25035000e-02	6.78648000e-03
1.17902000e-02	8.15059000e-03	2.00216000e-03
3.80721000e-02	-4.55368000e-03	9.26072000e-03
1.67128000e-02	-3.25896000e-02	1.81020000e-02
2.40387000e-02	-3.39701000e-03	1.99950000e-03
1.55416000e-02	-6.83869000e-03	1.31605000e-02
1.81623000e-02	-2.47137000e-02	5.60639000e-03
-7.86003000e-03	-3.13446000e-02	4.61584000e-03
2.13470000e-02	-3.07572000e-02	1.81001000e-02
2.64868000e-02	-2.98514000e-02	5.88650000e-03
1.05497000e-02	5.41317000e-03	1.46360000e-02
3.33468000e-02	-1.36348000e-02	9.90525000e-03
6.55401000e-03	-3.46733000e-02	1.80999000e-02
1.34885000e-02	-3.80060000e-04	1.58967000e-02
-9.91611000e-03	-3.44687000e-02	1.31142000e-02
1.97835000e-02	6.65107000e-03	1.33705000e-02
3.50499000e-02	1.73730000e-02	2.06388000e-03
3.58826000e-02	4.76433000e-03	1.81006000e-02
2.44145000e-02	1.50381000e-02	1.81000000e-02
2.55243000e-02	-4.35885000e-03	7.75193000e-03
1.54322000e-02	-3.31665000e-02	5.09377000e-03
3.20715000e-02	-4.65895000e-03	4.91488000e-03
-6.47470000e-03	-3.60363000e-02	1.63021000e-02
1.67330000e-02	-3.63223000e-02	1.38272000e-02
2.94282000e-02	8.52901000e-04	1.24267000e-02
2.18765000e-02	1.68705000e-02	1.05736000e-02
7.63540000e-03	-2.38717000e-02	2.00002000e-03
3.45285000e-02	1.82285000e-02	1.43209000e-02
2.83726000e-03	-1.76580000e-02	1.80852000e-02
2.74204000e-02	2.13922000e-02	3.87965000e-03
2.74862000e-02	-2.51817000e-02	1.56579000e-02
2.77509000e-02	-2.07876000e-03	1.48640000e-02
2.28848000e-02	-3.27668000e-02	1.49878000e-02
7.14681000e-03	-3.93256000e-02	1.79813000e-02
2.04627000e-02	-5.28433000e-03	6.40316000e-03
1.80949000e-02	-2.55075000e-02	1.34347000e-02
3.33739000e-02	3.62266000e-03	1.13859000e-02
2.42605000e-02	-1.77705000e-02	9.40107000e-03
1.43591000e-02	-2.41220000e-02	7.00527000e-03
3.15378000e-02	-1.73084000e-02	1.80791000e-02
3.46068000e-04	-3.68592000e-02	1.49340000e-02
5.19273000e-03	-3.24277000e-02	1.45532000e-02
2.53430000e-02	-3.09317000e-02	1.81000000e-02
3.90970000e-02	7.95487000e-03	1.12739000e-02
3.09854000e-02	-1.97394000e-02	1.44707000e-02
7.09334000e-03	-3.18779000e-02	7.36836000e-03
1.24964000e-02	-3.15220000e-02	1.31905000e-02
1.11841000e-02	-3.59526000e-02	5.82403000e-03
2.86881000e-02	9.66685000e-03	1.41614000e-02
1.48589000e-02	-2.88936000e-02	1.13188000e-02
3.85646000e-02	-1.03393000e-02	1.44519000e-02
2.76073000e-02	-1.28406000e-02	1.99998000e-03
3.50309000e-02	-1.18700000e-02	1.33696000e-02
3.15585000e-02	-8.39464000e-03	1.35410000e-02
2.63013000e-02	1.28799000e-02	1.41154000e-02
2.76862000e-02	4.31762000e-03	2.04058000e-03
[...]
POINT_DATA 469
SCALARS Radius double 1
LOOKUP_TABLE default
2.00000000e-03
2.00000000e-03
2.00000000e-03
2.00000000e-03
2.00000000e-03
2.00000000e-03
2.00000000e-03
2.00000000e-03
2.00000000e-03
2.00000000e-03
2.00000000e-03
2.00000000e-03
2.00000000e-03
2.00000000e-03
2.00000000e-03
2.00000000e-03
2.00000000e-03
2.00000000e-03
2.00000000e-03
2.00000000e-03
2.00000000e-03
2.00000000e-03
2.00000000e-03
2.00000000e-03
2.00000000e-03
2.00000000e-03
2.00000000e-03
2.00000000e-03
2.00000000e-03
2.00000000e-03
2.00000000e-03
2.00000000e-03
2.00000000e-03
2.00000000e-03
2.00000000e-03
2.00000000e-03
2.00000000e-03
2.00000000e-03
2.00000000e-03
2.00000000e-03
2.00000000e-03
2.00000000e-03
2.00000000e-03
2.00000000e-03
2.00000000e-03
2.00000000e-03
2.00000000e-03
2.00000000e-03
2.00000000e-03
2.00000000e-03
2.00000000e-03
2.00000000e-03
2.00000000e-03
2.00000000e-03
2.00000000e-03
2.00000000e-03
2.00000000e-03
2.00000000e-03
2.00000000e-03
2.00000000e-03
2.00000000e-03
2.00000000e-03
2.00000000e-03
2.00000000e-03
2.00000000e-03
2.00000000e-03
2.00000000e-03
2.00000000e-03
2.00000000e-03
2.00000000e-03
2.00000000e-03
2.00000000e-03
2.00000000e-03
2.00000000e-03
2.00000000e-03
2.00000000e-03
2.00000000e-03
2.00000000e-03
2.00000000e-03
2.00000000e-03
2.00000000e-03
2.00000000e-03
2.00000000e-03
2.00000000e-03
2.00000000e-03
2.00000000e-03
2.00000000e-03
2.00000000e-03
2.00000000e-03
2.00000000e-03
2.00000000e-03
2.00000000e-03
2.00000000e-03
2.00000000e-03
2.00000000e-03
2.00000000e-03
2.00000000e-03
2.00000000e-03
2.00000000e-03
2.00000000e-03
2.00000000e-03
2.00000000e-03
2.00000000e-03
2.00000000e-03
2.00000000e-03
2.00000000e-03
2.00000000e-03
2.00000000e-03
2.00000000e-03
2.00000000e-03
2.00000000e-03
2.00000000e-03
2.00000000e-03
2.00000000e-03
2.00000000e-03
2.00000000e-03
2.00000000e-03
2.00000000e-03
2.00000000e-03
2.00000000e-03
2.00000000e-03
2.00000000e-03
2.00000000e-03
2.00000000e-03
2.00000000e-03
2.00000000e-03
2.00000000e-03
2.00000000e-03
2.00000000e-03
2.00000000e-03
2.00000000e-03
2.00000000e-03
2.00000000e-03
2.00000000e-03
2.00000000e-03
2.00000000e-03
2.00000000e-03
2.00000000e-03
2.00000000e-03
2.00000000e-03
2.00000000e-03
2.00000000e-03
2.00000000e-03
2.00000000e-03
2.00000000e-03
2.00000000e-03
2.00000000e-03
2.00000000e-03
2.00000000e-03
2.00000000e-03
2.00000000e-03
2.00000000e-03
2.00000000e-03
2.00000000e-03
2.00000000e-03
2.00000000e-03
2.00000000e-03
2.00000000e-03
2.00000000e-03
2.00000000e-03
2.00000000e-03
2.00000000e-03
2.00000000e-03
2.00000000e-03
2.00000000e-03
2.00000000e-03
2.00000000e-03
2.00000000e-03
2.00000000e-03
2.00000000e-03
2.00000000e-03
2.00000000e-03
2.00000000e-03
2.00000000e-03
2.00000000e-03
2.00000000e-03
2.00000000e-03
2.00000000e-03
2.00000000e-03
2.00000000e-03
2.00000000e-03
2.00000000e-03
2.00000000e-03
2.00000000e-03
2.00000000e-03
2.00000000e-03
2.00000000e-03
2.00000000e-03
2.00000000e-03
2.00000000e-03
2.00000000e-03
2.00000000e-03
2.00000000e-03
2.00000000e-03
2.00000000e-03
2.00000000e-03
2.00000000e-03
2.00000000e-03
2.00000000e-03
2.00000000e-03
2.00000000e-03
2.00000000e-03
2.00000000e-03
2.00000000e-03
2.00000000e-03
2.00000000e-03
2.00000000e-03
2.00000000e-03
2.00000000e-03
2.00000000e-03
2.00000000e-03
2.00000000e-03
2.00000000e-03
2.00000000e-03
2.00000000e-03
2.00000000e-03
2.00000000e-03
2.00000000e-03
2.00000000e-03
2.00000000e-03
2.00000000e-03
2.00000000e-03
2.00000000e-03
2.00000000e-03
2.00000000e-03
2.00000000e-03
2.00000000e-03
2.00000000e-03
2.00000000e-03
2.00000000e-03
2.00000000e-03
2.00000000e-03
2.00000000e-03
2.00000000e-03
2.00000000e-03
2.00000000e-03
2.00000000e-03
2.00000000e-03
2.00000000e-03
2.00000000e-03
2.00000000e-03
2.00000000e-03
2.00000000e-03
2.00000000e-03
2.00000000e-03
2.00000000e-03
2.00000000e-03
2.00000000e-03
2.00000000e-03
2.00000000e-03
2.00000000e-03
2.00000000e-03
2.00000000e-03
2.00000000e-03
2.00000000e-03
2.00000000e-03
2.00000000e-03
2.00000000e-03
2.00000000e-03
2.00000000e-03
2.00000000e-03
2.00000000e-03
2.00000000e-03
2.00000000e-03
2.00000000e-03
2.00000000e-03
2.00000000e-03
2.00000000e-03
2.00000000e-03
2.00000000e-03
2.00000000e-03
2.00000000e-03
2.00000000e-03
2.00000000e-03
2.00000000e-03
2.00000000e-03
2.00000000e-03
2.00000000e-03
2.00000000e-03
2.00000000e-03
2.00000000e-03
2.00000000e-03
2.00000000e-03
2.00000000e-03
2.00000000e-03
2.00000000e-03
2.00000000e-03
2.00000000e-03
2.00000000e-03
2.00000000e-03
2.00000000e-03
2.00000000e-03
2.00000000e-03
2.00000000e-03
2.00000000e-03
2.00000000e-03
2.00000000e-03
2.00000000e-03
2.00000000e-03
2.00000000e-03
2.00000000e-03
2.00000000e-03
2.00000000e-03
2.00000000e-03
2.00000000e-03
2.00000000e-03
2.00000000e-03
2.00000000e-03
2.00000000e-03
2.00000000e-03
2.00000000e-03
2.00000000e-03
2.00000000e-03
2.00000000e-03
2.00000000e-03
2.00000000e-03
2.00000000e-03
2.00000000e-03
2.00000000e-03
2.00000000e-03
2.00000000e-03
2.00000000e-03
2.00000000e-03
2.00000000e-03
2.00000000e-03
2.00000000e-03
2.00000000e-03
2.00000000e-03
2.00000000e-03
2.00000000e-03
2.00000000e-03
2.00000000e-03
2.00000000e-03
2.00000000e-03
2.00000000e-03
2.00000000e-03
2.00000000e-03
2.00000000e-03
2.00000000e-03
2.00000000e-03
2.00000000e-03
2.00000000e-03
2.00000000e-03
2.00000000e-03
2.00000000e-03
2.00000000e-03
2.00000000e-03
2.00000000e-03
2.00000000e-03
2.00000000e-03
2.00000000e-03
2.00000000e-03
2.00000000e-03
2.00000000e-03
2.00000000e-03
2.00000000e-03
2.00000000e-03
2.00000000e-03
2.00000000e-03
2.00000000e-03
2.00000000e-03
2.00000000e-03
2.00000000e-03
2.00000000e-03
2.00000000e-03
2.00000000e-03
2.00000000e-03
2.00000000e-03
2.00000000e-03
2.00000000e-03
2.00000000e-03
2.00000000e-03
2.00000000e-03
2.00000000e-03
2.00000000e-03
2.00000000e-03
2.00000000e-03
2.00000000e-03
2.00000000e-03
2.00000000e-03
2.00000000e-03
2.00000000e-03
2.00000000e-03
2.00000000e-03
2.00000000e-03
2.00000000e-03
2.00000000e-03
2.00000000e-03
2.00000000e-03
2.00000000e-03
2.00000000e-03
2.00000000e-03
2.00000000e-03
2.00000000e-03
2.00000000e-03
2.00000000e-03
2.00000000e-03
2.00000000e-03
2.00000000e-03
2.00000000e-03
2.00000000e-03
2.00000000e-03
2.00000000e-03
2.00000000e-03
2.00000000e-03
2.00000000e-03
2.00000000e-03
2.00000000e-03
2.00000000e-03
2.00000000e-03
2.00000000e-03
2.00000000e-03
2.00000000e-03
2.00000000e-03
2.00000000e-03
2.00000000e-03
2.00000000e-03
2.00000000e-03
2.00000000e-03
2.00000000e-03
2.00000000e-03
2.00000000e-03
2.00000000e-03
2.00000000e-03
2.00000000e-03
2.00000000e-03
2.00000000e-03
2.00000000e-03
2.00000000e-03
2.00000000e-03
2.00000000e-03
2.00000000e-03
2.00000000e-03
2.00000000e-03
2.00000000e-03
2.00000000e-03
2.00000000e-03
2.00000000e-03
2.00000000e-03
2.00000000e-03
2.00000000e-03
2.00000000e-03
2.00000000e-03
2.00000000e-03
2.00000000e-03
2.00000000e-03
2.00000000e-03
2.00000000e-03
2.00000000e-03
2.00000000e-03
2.00000000e-03
2.00000000e-03
2.00000000e-03
2.00000000e-03
2.00000000e-03
2.00000000e-03
2.00000000e-03
2.00000000e-03
2.00000000e-03
2.00000000e-03
2.00000000e-03
2.00000000e-03
2.00000000e-03
2.00000000e-03
2.00000000e-03
2.00000000e-03
2.00000000e-03
2.00000000e-03
2.00000000e-03
