# vtk DataFile Version 2.0
Particle data
ASCII
DATASET POLYDATA
POINTS 469 double
1.54555000e-02	-3.26018000e-02	8.67862000e-03
5.51149000e-03	-2.96667000e-02	1.32705000e-02
6.95220000e-03	-1.26662000e-02	2.04800000e-03
3.97735000e-02	3.17069000e-03	1.80441000e-02
3.71803000e-03	-2.33926000e-02	1.99967000e-03
2.00631000e-02	-3.45917000e-02	2.45814000e-03
1.31433000e-02	-3.09843000e-02	1.15139000e-02
2.69475000e-02	-1.06029000e-02	1.75276000e-02
-3.81326000e-03	-3.40792000e-02	1.81004000e-02
3.26146000e-02	1.49408000e-02	1.17400000e-02
2.46573000e-02	-3.14755000e-02	1.78897000e-02
7.11365000e-03	-3.08842000e-02	1.80803000e-02
-1.30805000e-02	-3.31474000e-02	1.08770000e-02
1.53237000e-02	4.22899000e-03	2.02021000e-03
2.18633000e-02	-3.34023000e-02	1.44934000e-02
3.25302000e-02	2.42743000e-03	1.21013000e-02
3.64869000e-02	-2.09503000e-03	1.41272000e-02
9.29048000e-04	-3.65029000e-02	1.99990000e-03
2.94220000e-02	-1.13934000e-02	1.39654000e-02
2.61017000e-02	-2.76871000e-02	1.11099000e-02
2.79821000e-02	-2.30459000e-02	2.01353000e-03
-1.04459000e-02	-3.50864000e-02	1.80838000e-02
3.62510000e-02	5.35607000e-03	1.12314000e-02
2.14196000e-02	-1.07495000e-02	2.36127000e-03
2.04542000e-02	7.12143000e-03	2.03706000e-03
3.50895000e-02	1.15871000e-02	1.45483000e-02
3.50934000e-02	-1.90929000e-02	1.42726000e-02
-2.97161000e-03	-3.66131000e-02	1.31075000e-02
3.96555000e-02	-5.20517000e-03	1.62016000e-02
1.87714000e-02	-1.42881000e-02	1.40425000e-02
-1.42165000e-03	-3.33159000e-02	1.14588000e-02
5.52410000e-03	-3.96012000e-02	1.99987000e-03
3.05478000e-03	-3.61406000e-02	5.36856000e-03
2.06093000e-02	1.99968000e-03	1.79642000e-02
2.51941000e-02	5.96995000e-03	8.94730000e-03
1.14153000e-02	-3.76083000e-03	8.53231000e-03
2.01660000e-02	-3.37380000e-02	6.53136000e-03
3.42295000e-02	-1.26366000e-02	9.56633000e-03
9.18077000e-03	-3.10293000e-02	1.09696000e-02
1.95117000e-02	-7.39466000e-04	2.35000000e-03
3.27143000e-02	-1.60201000e-02	8.06566000e-03
4.35267000e-03	-3.82146000e-02	1.53733000e-02
2.20935000e-02	1.35150000e-02	2.00002000e-03
1.51734000e-02	-2.34496000e-02	1.49752000e-02
3.42368000e-02	6.34464000e-03	1.45423000e-02
2.85543000e-02	-2.25646000e-02	1.12022000e-02
2.14594000e-02	-2.16695000e-02	1.38180000e-02
2.08875000e-02	-2.07082000e-02	5.34197000e-03
2.27370000e-02	-1.23380000e-02	1.03429000e-02
1.43143000e-02	-2.57942000e-02	1.81000000e-02
1.65592000e-02	-1.67176000e-02	2.04027000e-03
1.86765000e-02	-1.37523000e-02	3.72937000e-03
3.60744000e-02	2.51530000e-03	1.66707000e-02
2.72612000e-02	-9.13742000e-03	8.09695000e-03
3.82470000e-02	1.07366000e-02	4.44563000e-03
3.90258000e-02	-8.58683000e-03	1.41093000e-02
3.31850000e-02	1.17614000e-02	9.38121000e-03
2.52201000e-02	-2.12913000e-02	1.51259000e-02
3.52540000e-02	1.67308000e-02	1.41545000e-02
3.11796000e-02	1.56786000e-02	1.69702000e-02
1.92011000e-02	1.60908000e-02	1.81005000e-02
2.45810000e-02	-2.88973000e-03	1.13401000e-02
1.78722000e-02	-2.05752000e-02	1.80953000e-02
3.63476000e-02	-4.23825000e-03	1.03804000e-02
1.20838000e-04	-2.46932000e-02	7.32135000e-03
2.94568000e-02	-2.69706000e-02	6.82479000e-03
2.46151000e-02	1.47409000e-02	5.20875000e-03
3.37254000e-03	-3.22965000e-02	1.79929000e-02
3.68212000e-02	1.38913000e-02	1.17721000e-02
1.71239000e-02	9.83423000e-03	1.00297000e-02
3.63635000e-02	-1.65133000e-02	6.40155000e-03
-9.80828000e-03	-3.61934000e-02	2.00050000e-03
1.95217000e-02	-2.83086000e-02	1.81006000e-02
3.12902000e-02	-1.97136000e-02	8.63708000e-03
9.27231000e-03	-3.80873000e-02	5.79483000e-03
3.45330000e-02	-2.01145000e-02	1.80996000e-02
3.09962000e-02	-1.09459000e-02	5.92799000e-03
1.16276000e-02	-2.54000000e-02	8.90358000e-03
-4.06998000e-03	-2.66715000e-02	1.32207000e-02
2.34428000e-02	-8.13889000e-03	1.80992000e-02
2.56200000e-02	-2.08058000e-02	5.33989000e-03
2.02002000e-02	1.64981000e-03	7.89769000e-03
2.76943000e-02	1.43888000e-02	1.99999000e-03
2.28195000e-02	1.77956000e-02	1.80934000e-02
2.34431000e-02	4.45861000e-03	2.00058000e-03
2.98988000e-02	-2.65563000e-02	1.99955000e-03
8.14600000e-03	-3.64778000e-02	1.47273000e-02
3.64226000e-02	1.66285000e-03	1.27587000e-02
2.19321000e-02	8.55372000e-03	5.72499000e-03
3.09941000e-02	-3.11293000e-03	6.94597000e-03
2.95780000e-02	-2.13738000e-02	5.42674000e-03
1.39713000e-02	-2.78742000e-02	1.99890000e-03
-6.45461000e-03	-3.19078000e-02	6.48007000e-03
3.55796000e-02	-1.82562000e-02	9.91469000e-03
1.53971000e-02	-4.15879000e-03	1.33016000e-02
-7.27775000e-03	-3.93117000e-02	8.06111000e-03
3.61188000e-02	6.36511000e-04	8.90244000e-03
3.00677000e-02	1.00366000e-02	1.80775000e-02
1.93010000e-02	-1.27621000e-02	1.80641000e-02
1.49130000e-02	-1.24000000e-02	1.41044000e-02
2.98803000e-02	-2.82486000e-04	2.00058000e-03
2.96122000e-02	-4.00440000e-04	1.15934000e-02
3.47984000e-02	-6.20422000e-03	1.35016000e-02
-1.70118000e-02	-3.50875000e-02	1.45614000e-02
3.38013000e-02	7.81215000e-03	9.24061000e-03
2.21766000e-02	-1.46620000e-02	2.01799000e-03
3.27022000e-02	2.56279000e-03	2.27982000e-03
2.42188000e-02	-7.89360000e-03	2.13275000e-03
2.46307000e-02	1.71320000e-02	2.00045000e-03
8.90868000e-03	-1.87904000e-02	5.76510000e-03
3.30578000e-02	-7.99369000e-04	4.41741000e-03
3.04983000e-02	-2.08019000e-02	1.81004000e-02
2.46517000e-02	-2.34562000e-02	1.17220000e-02
3.62124000e-02	6.46807000e-04	2.42834000e-03
2.20624000e-02	1.19984000e-02	1.79831000e-02
3.10893000e-02	1.22741000e-02	1.99977000e-03
3.82672000e-02	-1.15374000e-02	1.01598000e-02
2.99580000e-02	3.72384000e-03	9.32613000e-03
2.01923000e-03	-2.99645000e-02	1.07989000e-02
5.56434000e-03	-3.95493000e-02	6.12733000e-03
1.90175000e-02	-2.66033000e-02	1.99929000e-03
1.81271000e-02	-1.65850000e-02	1.79976000e-02
2.89059000e-02	-2.76115000e-02	1.70169000e-02
1.40101000e-02	3.74097000e-03	1.61499000e-02
-1.51873000e-02	-3.67128000e-02	1.80579000e-02
2.60022000e-02	-2.60974000e-02	4.64131000e-03
1.72022000e-02	-3.60998000e-02	5.18846000e-03
7.34744000e-03	-3.11714000e-02	7.32541000e-03
3.55920000e-02	-7.88580000e-03	8.92158000e-03
3.28499000e-02	-7.65641000e-03	2.07384000e-03
3.42917000e-02	-1.31877000e-02	5.60289000e-03
-1.24530000e-02	-3.79857000e-02	4.42172000e-03
2.68350000e-02	-1.91597000e-02	1.81003000e-02
2.35718000e-03	-3.63337000e-02	1.24545000e-02
1.97420000e-02	-1.05191000e-02	1.31182000e-02
2.80222000e-02	1.68102000e-02	5.80395000e-03
-2.71239000e-03	-3.36974000e-02	4.46691000e-03
1.62980000e-02	-3.32978000e-02	2.05029000e-03
3.01776000e-02	4.47860000e-03	1.46028000e-02
3.40284000e-02	-1.26565000e-02	1.74319000e-02
2.66829000e-02	1.70483000e-02	1.70135000e-02
2.30025000e-02	-2.62282000e-02	1.99872000e-03
2.48211000e-02	-2.62269000e-02	1.46064000e-02
3.81083000e-02	-1.21261000e-02	6.15375000e-03
1.73044000e-02	-2.90934000e-02	8.16673000e-03
2.71310000e-02	-2.93715000e-02	2.64106000e-03
3.88219000e-02	8.97226000e-03	1.05143000e-02
2.33966000e-02	-3.24291000e-02	2.00002000e-03
2.51552000e-02	-5.78043000e-03	8.63636000e-03
2.32242000e-02	5.41375000e-03	1.80975000e-02
2.09672000e-02	-2.67276000e-02	1.09419000e-02
2.79749000e-02	3.33310000e-03	1.80997000e-02
1.45355000e-02	-3.72174000e-02	1.14495000e-02
3.30729000e-02	-2.24530000e-02	1.51975000e-02
1.64632000e-02	-2.04499000e-02	1.26628000e-02
2.32218000e-02	-1.63062000e-02	1.01969000e-02
1.35023000e-02	-3.75266000e-02	5.80847000e-03
1.22562000e-02	-1.58525000e-02	4.76098000e-03
-1.82043000e-02	-3.52864000e-02	1.00203000e-02
2.00444000e-02	-2.27384000e-02	2.00096000e-03
-4.99775000e-03	-3.63767000e-02	6.58262000e-03
1.49896000e-02	-3.70757000e-02	1.99954000e-03
3.15736000e-02	1.84574000e-02	1.41180000e-02
3.35677000e-02	-6.27062000e-03	1.80999000e-02
2.83396000e-02	8.97184000e-03	2.21338000e-03
9.03830000e-03	-2.50516000e-02	1.30196000e-02
1.75046000e-02	-1.88687000e-02	6.67433000e-03
2.17517000e-02	-2.89488000e-02	4.64771000e-03
3.99722000e-02	-8.23887000e-04	1.79967000e-02
3.20755000e-02	4.83393000e-04	8.32003000e-03
1.78975000e-02	-3.57368000e-02	9.14973000e-03
3.28776000e-02	1.69318000e-02	2.73411000e-03
2.00092000e-02	-2.08844000e-02	1.01739000e-02
8.06593000e-03	-3.24835000e-02	1.45375000e-02
1.33428000e-02	-2.74422000e-02	5.92413000e-03
1.14874000e-02	-3.44466000e-02	1.26423000e-02
-1.06757000e-03	-3.99671000e-02	2.10637000e-03
-9.13697000e-03	-3.18930000e-02	1.59315000e-02
1.10135000e-02	-3.84291000e-02	1.80987000e-02
2.71333000e-02	-6.25680000e-03	5.19272000e-03
3.99559000e-02	9.30975000e-05	1.41032000e-02
2.24404000e-02	-5.74955000e-03	5.28599000e-03
1.29430000e-02	-2.20385000e-02	1.81012000e-02
3.96420000e-02	3.66451000e-03	7.27801000e-03
1.62693000e-02	-8.54797000e-03	1.51645000e-02
1.14394000e-02	-3.82800000e-02	9.15152000e-03
2.23843000e-02	-2.96024000e-02	1.33589000e-02
7.80888000e-04	-3.99574000e-02	1.30725000e-02
2.17796000e-02	-1.99150000e-02	1.75523000e-02
1.04256000e-02	-3.86031000e-02	1.99968000e-03
3.53246000e-02	9.06607000e-03	1.76474000e-02
3.10026000e-02	1.18039000e-02	1.45027000e-02
3.85432000e-02	9.57162000e-03	1.44584000e-02
3.96385000e-02	-4.43231000e-03	7.54825000e-03
2.23686000e-02	-9.64836000e-03	6.17863000e-03
2.95545000e-02	-6.34102000e-03	1.81000000e-02
2.84351000e-02	1.05883000e-02	1.08907000e-02
1.93177000e-02	-1.65148000e-02	9.35203000e-03
1.46890000e-02	-2.39564000e-02	1.10365000e-02
3.57763000e-02	1.71331000e-02	1.80999000e-02
3.36440000e-02	-2.14380000e-02	1.13721000e-02
2.70959000e-02	-2.37113000e-02	7.65896000e-03
3.22840000e-02	-5.26770000e-03	1.02216000e-02
-1.40322000e-02	-3.67436000e-02	1.23731000e-02
3.95097000e-02	5.59846000e-03	1.48762000e-02
2.32220000e-02	-2.23178000e-02	8.16314000e-03
2.30940000e-02	-1.58193000e-02	1.41651000e-02
3.63446000e-02	-1.66074000e-02	1.74537000e-02
-2.22052000e-03	-3.01230000e-02	1.40603000e-02
2.97657000e-02	-1.53132000e-02	1.46815000e-02
2.30798000e-02	1.57001000e-02	1.26458000e-02
3.44063000e-02	6.60635000e-03	2.00031000e-03
3.20249000e-02	1.66931000e-02	6.63762000e-03
2.93402000e-02	6.60051000e-04	1.54466000e-02
6.38488000e-04	-3.39553000e-02	1.51727000e-02
1.87838000e-02	1.09334000e-02	4.89319000e-03
[...]
POINT_DATA 469
SCALARS Radius double 1
LOOKUP_TABLE default
2.00000000e-03
2.00000000e-03
2.00000000e-03
2.00000000e-03
2.00000000e-03
2.00000000e-03
2.00000000e-03
2.00000000e-03
2.00000000e-03
2.00000000e-03
2.00000000e-03
2.00000000e-03
2.00000000e-03
2.00000000e-03
2.00000000e-03
2.00000000e-03
2.00000000e-03
2.00000000e-03
2.00000000e-03
2.00000000e-03
2.00000000e-03
2.00000000e-03
2.00000000e-03
2.00000000e-03
2.00000000e-03
2.00000000e-03
2.00000000e-03
2.00000000e-03
2.00000000e-03
2.00000000e-03
2.00000000e-03
2.00000000e-03
2.00000000e-03
2.00000000e-03
2.00000000e-03
2.00000000e-03
2.00000000e-03
2.00000000e-03
2.00000000e-03
2.00000000e-03
2.00000000e-03
2.00000000e-03
2.00000000e-03
2.00000000e-03
2.00000000e-03
2.00000000e-03
2.00000000e-03
2.00000000e-03
2.00000000e-03
2.00000000e-03
2.00000000e-03
2.00000000e-03
2.00000000e-03
2.00000000e-03
2.00000000e-03
2.00000000e-03
2.00000000e-03
2.00000000e-03
2.00000000e-03
2.00000000e-03
2.00000000e-03
2.00000000e-03
2.00000000e-03
2.00000000e-03
2.00000000e-03
2.00000000e-03
2.00000000e-03
2.00000000e-03
2.00000000e-03
2.00000000e-03
2.00000000e-03
2.00000000e-03
2.00000000e-03
2.00000000e-03
2.00000000e-03
2.00000000e-03
2.00000000e-03
2.00000000e-03
2.00000000e-03
2.00000000e-03
2.00000000e-03
2.00000000e-03
2.00000000e-03
2.00000000e-03
2.00000000e-03
2.00000000e-03
2.00000000e-03
2.00000000e-03
2.00000000e-03
2.00000000e-03
2.00000000e-03
2.00000000e-03
2.00000000e-03
2.00000000e-03
2.00000000e-03
2.00000000e-03
2.00000000e-03
2.00000000e-03
2.00000000e-03
2.00000000e-03
2.00000000e-03
2.00000000e-03
2.00000000e-03
2.00000000e-03
2.00000000e-03
2.00000000e-03
2.00000000e-03
2.00000000e-03
2.00000000e-03
2.00000000e-03
2.00000000e-03
2.00000000e-03
2.00000000e-03
2.00000000e-03
2.00000000e-03
2.00000000e-03
2.00000000e-03
2.00000000e-03
2.00000000e-03
2.00000000e-03
2.00000000e-03
2.00000000e-03
2.00000000e-03
2.00000000e-03
2.00000000e-03
2.00000000e-03
2.00000000e-03
2.00000000e-03
2.00000000e-03
2.00000000e-03
2.00000000e-03
2.00000000e-03
2.00000000e-03
2.00000000e-03
2.00000000e-03
2.00000000e-03
2.00000000e-03
2.00000000e-03
2.00000000e-03
2.00000000e-03
2.00000000e-03
2.00000000e-03
2.00000000e-03
2.00000000e-03
2.00000000e-03
2.00000000e-03
2.00000000e-03
2.00000000e-03
2.00000000e-03
2.00000000e-03
2.00000000e-03
2.00000000e-03
2.00000000e-03
2.00000000e-03
2.00000000e-03
2.00000000e-03
2.00000000e-03
2.00000000e-03
2.00000000e-03
2.00000000e-03
2.00000000e-03
2.00000000e-03
2.00000000e-03
2.00000000e-03
2.00000000e-03
2.00000000e-03
2.00000000e-03
2.00000000e-03
2.00000000e-03
2.00000000e-03
2.00000000e-03
2.00000000e-03
2.00000000e-03
2.00000000e-03
2.00000000e-03
2.00000000e-03
2.00000000e-03
2.00000000e-03
2.00000000e-03
2.00000000e-03
2.00000000e-03
2.00000000e-03
2.00000000e-03
2.00000000e-03
2.00000000e-03
2.00000000e-03
2.00000000e-03
2.00000000e-03
2.00000000e-03
2.00000000e-03
2.00000000e-03
2.00000000e-03
2.00000000e-03
2.00000000e-03
2.00000000e-03
2.00000000e-03
2.00000000e-03
2.00000000e-03
2.00000000e-03
2.00000000e-03
2.00000000e-03
2.00000000e-03
2.00000000e-03
2.00000000e-03
2.00000000e-03
2.00000000e-03
2.00000000e-03
2.00000000e-03
2.00000000e-03
2.00000000e-03
2.00000000e-03
2.00000000e-03
2.00000000e-03
2.00000000e-03
2.00000000e-03
2.00000000e-03
2.00000000e-03
2.00000000e-03
2.00000000e-03
2.00000000e-03
2.00000000e-03
2.00000000e-03
2.00000000e-03
2.00000000e-03
2.00000000e-03
2.00000000e-03
2.00000000e-03
2.00000000e-03
2.00000000e-03
2.00000000e-03
2.00000000e-03
2.00000000e-03
2.00000000e-03
2.00000000e-03
2.00000000e-03
2.00000000e-03
2.00000000e-03
2.00000000e-03
2.00000000e-03
2.00000000e-03
2.00000000e-03
2.00000000e-03
2.00000000e-03
2.00000000e-03
2.00000000e-03
2.00000000e-03
2.00000000e-03
2.00000000e-03
2.00000000e-03
2.00000000e-03
2.00000000e-03
2.00000000e-03
2.00000000e-03
2.00000000e-03
2.00000000e-03
2.00000000e-03
2.00000000e-03
2.00000000e-03
2.00000000e-03
2.00000000e-03
2.00000000e-03
2.00000000e-03
2.00000000e-03
2.00000000e-03
2.00000000e-03
2.00000000e-03
2.00000000e-03
2.00000000e-03
2.00000000e-03
2.00000000e-03
2.00000000e-03
2.00000000e-03
2.00000000e-03
2.00000000e-03
2.00000000e-03
2.00000000e-03
2.00000000e-03
2.00000000e-03
2.00000000e-03
2.00000000e-03
2.00000000e-03
2.00000000e-03
2.00000000e-03
2.00000000e-03
2.00000000e-03
2.00000000e-03
2.00000000e-03
2.00000000e-03
2.00000000e-03
2.00000000e-03
2.00000000e-03
2.00000000e-03
2.00000000e-03
2.00000000e-03
2.00000000e-03
2.00000000e-03
2.00000000e-03
2.00000000e-03
2.00000000e-03
2.00000000e-03
2.00000000e-03
2.00000000e-03
2.00000000e-03
2.00000000e-03
2.00000000e-03
2.00000000e-03
2.00000000e-03
2.00000000e-03
2.00000000e-03
2.00000000e-03
2.00000000e-03
2.00000000e-03
2.00000000e-03
2.00000000e-03
2.00000000e-03
2.00000000e-03
2.00000000e-03
2.00000000e-03
2.00000000e-03
2.00000000e-03
2.00000000e-03
2.00000000e-03
2.00000000e-03
2.00000000e-03
2.00000000e-03
2.00000000e-03
2.00000000e-03
2.00000000e-03
2.00000000e-03
2.00000000e-03
2.00000000e-03
2.00000000e-03
2.00000000e-03
2.00000000e-03
2.00000000e-03
2.00000000e-03
2.00000000e-03
2.00000000e-03
2.00000000e-03
2.00000000e-03
2.00000000e-03
2.00000000e-03
2.00000000e-03
2.00000000e-03
2.00000000e-03
2.00000000e-03
2.00000000e-03
2.00000000e-03
2.00000000e-03
2.00000000e-03
2.00000000e-03
2.00000000e-03
2.00000000e-03
2.00000000e-03
2.00000000e-03
2.00000000e-03
2.00000000e-03
2.00000000e-03
2.00000000e-03
2.00000000e-03
2.00000000e-03
2.00000000e-03
2.00000000e-03
2.00000000e-03
2.00000000e-03
2.00000000e-03
2.00000000e-03
2.00000000e-03
2.00000000e-03
2.00000000e-03
2.00000000e-03
2.00000000e-03
2.00000000e-03
2.00000000e-03
2.00000000e-03
2.00000000e-03
2.00000000e-03
2.00000000e-03
2.00000000e-03
2.00000000e-03
2.00000000e-03
2.00000000e-03
2.00000000e-03
2.00000000e-03
2.00000000e-03
2.00000000e-03
2.00000000e-03
2.00000000e-03
2.00000000e-03
2.00000000e-03
2.00000000e-03
2.00000000e-03
2.00000000e-03
2.00000000e-03
2.00000000e-03
2.00000000e-03
2.00000000e-03
2.00000000e-03
2.00000000e-03
2.00000000e-03
2.00000000e-03
2.00000000e-03
2.00000000e-03
2.00000000e-03
2.00000000e-03
2.00000000e-03
2.00000000e-03
2.00000000e-03
2.00000000e-03
2.00000000e-03
2.00000000e-03
2.00000000e-03
2.00000000e-03
2.00000000e-03
2.00000000e-03
2.00000000e-03
2.00000000e-03
2.00000000e-03
2.00000000e-03
2.00000000e-03
2.00000000e-03
2.00000000e-03
2.00000000e-03
2.00000000e-03
2.00000000e-03
2.00000000e-03
2.00000000e-03
2.00000000e-03
2.00000000e-03
2.00000000e-03
2.00000000e-03
2.00000000e-03
2.00000000e-03
2.00000000e-03
2.00000000e-03
2.00000000e-03
2.00000000e-03
2.00000000e-03
2.00000000e-03
2.00000000e-03
2.00000000e-03
2.00000000e-03
2.00000000e-03
2.00000000e-03
2.00000000e-03
2.00000000e-03
2.00000000e-03
2.00000000e-03
2.00000000e-03
2.00000000e-03
2.00000000e-03
2.00000000e-03
2.00000000e-03
2.00000000e-03
2.00000000e-03
2.00000000e-03
2.00000000e-03
2.00000000e-03
2.00000000e-03
2.00000000e-03
2.00000000e-03
2.00000000e-03
2.00000000e-03
2.00000000e-03
2.00000000e-03
2.00000000e-03
2.00000000e-03
2.00000000e-03
2.00000000e-03
