# vtk DataFile Version 2.0
Particle data
ASCII
DATASET POLYDATA
POINTS 469 double
7.12499000e-03	-3.57831000e-02	1.45191000e-02
9.43420000e-03	-2.71217000e-02	1.37135000e-02
-6.40597000e-03	-2.85892000e-02	9.64856000e-03
3.06817000e-02	-1.24307000e-02	8.63235000e-03
1.43801000e-02	-2.61834000e-02	2.31399000e-03
-2.08093000e-03	-3.65709000e-02	2.74159000e-03
-5.65141000e-03	-3.95836000e-02	1.80927000e-02
2.89461000e-02	-7.59166000e-03	1.81000000e-02
1.50291000e-02	7.15304000e-03	1.80009000e-02
3.80719000e-02	-2.23383000e-03	1.81006000e-02
1.05669000e-02	-3.50587000e-02	7.34796000e-03
3.80712000e-03	-2.77618000e-02	1.81002000e-02
2.83458000e-02	1.39519000e-02	1.03276000e-02
1.04946000e-02	-2.16667000e-02	6.71803000e-03
1.39828000e-02	-3.20491000e-02	1.47235000e-02
3.87636000e-02	-9.69529000e-03	1.09608000e-02
2.40515000e-02	-9.12636000e-03	5.94165000e-03
5.39229000e-03	-1.98638000e-02	2.29259000e-03
2.64213000e-02	-7.91203000e-03	1.37063000e-02
4.80953000e-03	-3.96704000e-02	4.83391000e-03
1.55486000e-02	-3.31479000e-02	1.99909000e-03
2.01051000e-02	1.23677000e-02	1.80982000e-02
3.64606000e-02	-1.63470000e-02	2.00123000e-03
1.30407000e-03	-2.34740000e-02	6.38262000e-03
3.17116000e-03	-2.31532000e-02	2.78287000e-03
3.64268000e-02	-2.51656000e-03	9.59077000e-03
2.40677000e-02	-3.19384000e-02	1.50676000e-02
2.39394000e-03	-2.21533000e-02	1.39172000e-02
3.05179000e-02	-2.00617000e-02	1.18127000e-02
2.58836000e-02	-4.30472000e-03	1.53482000e-02
5.32649000e-03	-3.03277000e-02	8.58311000e-03
-1.49936000e-03	-2.03272000e-02	5.85716000e-03
-9.39825000e-04	-3.11725000e-02	7.60154000e-03
1.77836000e-02	3.66252000e-03	1.76461000e-02
3.90992000e-02	7.47943000e-03	1.03503000e-02
8.80870000e-03	-1.78943000e-02	1.16654000e-02
4.99304000e-03	-3.96415000e-02	9.64416000e-03
3.00619000e-02	-2.62637000e-02	9.88118000e-03
3.07022000e-03	-3.12521000e-02	1.31393000e-02
8.62254000e-03	-3.26718000e-02	4.79432000e-03
2.81493000e-02	-2.32837000e-02	1.17406000e-02
-4.74377000e-03	-3.01500000e-02	1.71781000e-02
3.91895000e-02	7.92650000e-03	2.60117000e-03
9.26497000e-03	-3.51969000e-02	1.79918000e-02
2.66842000e-02	1.73110000e-03	1.33503000e-02
1.60303000e-02	-3.22642000e-02	1.12945000e-02
1.44575000e-02	-2.33324000e-02	9.14870000e-03
2.25744000e-02	-2.84073000e-02	1.39321000e-02
2.41197000e-02	-1.29765000e-02	1.07391000e-02
1.22351000e-02	-3.80700000e-02	1.81001000e-02
2.87352000e-02	-7.11526000e-03	1.99986000e-03
1.71808000e-02	-2.06366000e-02	7.91624000e-03
2.74877000e-02	-2.89356000e-02	1.17458000e-02
2.49609000e-02	-9.45913000e-03	2.05866000e-03
3.50936000e-02	-7.93253000e-03	1.18293000e-02
3.09380000e-02	-1.38657000e-02	1.50567000e-02
3.96337000e-02	-4.83673000e-03	9.01626000e-03
1.89013000e-02	-2.81639000e-02	1.80849000e-02
3.43299000e-02	7.97285000e-03	1.41416000e-02
3.16741000e-02	3.40601000e-03	1.43842000e-02
3.18615000e-02	1.19822000e-02	1.75375000e-02
1.82149000e-02	-7.07090000e-03	1.11287000e-02
2.03782000e-02	-1.22178000e-02	1.81002000e-02
3.41601000e-02	-1.44381000e-02	8.59115000e-03
1.03639000e-02	-1.28806000e-02	4.86892000e-03
1.56446000e-02	-3.03826000e-02	5.51521000e-03
3.98456000e-02	3.06018000e-03	3.20062000e-03
3.67644000e-03	-2.74215000e-02	1.41169000e-02
3.56114000e-02	-3.29509000e-04	5.93416000e-03
3.14372000e-02	1.64856000e-02	8.74054000e-03
2.75433000e-02	-2.27240000e-02	7.82562000e-03
1.97697000e-02	1.28844000e-02	2.00522000e-03
8.37839000e-03	-3.90925000e-02	1.78177000e-02
9.78488000e-03	-3.87654000e-02	1.40876000e-02
-1.35438000e-02	-3.47990000e-02	5.03820000e-03
2.69042000e-02	-2.11941000e-02	1.81002000e-02
2.14397000e-02	-1.25800000e-02	5.08890000e-03
-3.45986000e-04	-3.99951000e-02	6.32270000e-03
3.27533000e-02	1.76693000e-02	1.81002000e-02
3.87484000e-02	-9.87649000e-03	1.80999000e-02
2.14310000e-02	-2.69746000e-02	8.95520000e-03
2.09599000e-02	-4.17685000e-03	7.38356000e-03
1.98594000e-02	-3.90859000e-03	3.42525000e-03
2.19701000e-02	8.69568000e-04	1.80280000e-02
3.05251000e-02	7.79579000e-03	2.15626000e-03
1.51867000e-02	-3.69852000e-02	3.06516000e-03
9.10228000e-03	-2.53078000e-02	1.81003000e-02
3.75796000e-02	-1.35065000e-02	1.06936000e-02
2.67806000e-02	8.62334000e-03	6.88975000e-03
3.17774000e-02	3.32117000e-04	3.83134000e-03
2.10984000e-02	-3.39547000e-02	1.05638000e-02
1.26181000e-02	-3.28678000e-02	4.70610000e-03
1.19048000e-02	1.11350000e-03	7.43560000e-03
2.32512000e-02	-3.25395000e-02	2.64026000e-03
8.74056000e-04	-2.90881000e-02	1.05089000e-02
4.83812000e-03	-1.28764000e-02	1.07988000e-02
3.69255000e-02	-1.51764000e-02	5.79732000e-03
3.60396000e-02	-9.99865000e-05	1.27544000e-02
1.58592000e-02	-2.95160000e-05	1.80062000e-02
2.23923000e-03	-3.27052000e-02	9.48355000e-03
3.13331000e-02	-2.57286000e-03	6.63433000e-03
3.22863000e-02	-8.87504000e-04	1.08097000e-02
2.99155000e-02	-2.17371000e-02	1.54762000e-02
2.75293000e-02	1.64725000e-02	1.78989000e-02
3.14262000e-02	1.42610000e-03	7.66254000e-03
1.75812000e-02	-3.58558000e-02	1.04629000e-02
1.48929000e-02	-1.37825000e-02	1.07227000e-02
2.63325000e-02	-5.14728000e-03	5.52583000e-03
3.64632000e-02	1.26387000e-03	2.04837000e-03
9.27267000e-03	-2.99254000e-02	9.09391000e-03
3.64643000e-02	-5.69540000e-03	1.99973000e-03
1.86635000e-02	-3.21565000e-02	1.80784000e-02
2.27042000e-02	-2.28796000e-02	1.74287000e-02
3.20979000e-02	-9.63620000e-03	1.99976000e-03
2.75328000e-02	9.56640000e-03	1.43549000e-02
3.10863000e-02	3.83681000e-03	2.00458000e-03
1.98879000e-02	-3.46817000e-02	1.51952000e-02
3.94629000e-02	-6.44295000e-03	5.35760000e-03
1.03199000e-02	-2.54149000e-02	5.33250000e-03
-9.34096000e-03	-3.27462000e-02	2.00158000e-03
1.78120000e-02	-2.82263000e-02	1.99877000e-03
2.33491000e-02	-1.87899000e-03	1.34221000e-02
-4.24083000e-04	-3.99625000e-02	1.70522000e-02
3.58370000e-02	1.16094000e-02	6.00520000e-03
2.43283000e-02	1.89055000e-02	1.80981000e-02
1.61362000e-02	-3.65627000e-02	1.42087000e-02
-5.25601000e-03	-3.73479000e-02	5.09726000e-03
-4.15471000e-04	-3.81395000e-02	1.23574000e-02
3.11282000e-02	-1.57214000e-02	1.08618000e-02
2.24179000e-02	-2.28624000e-02	1.99983000e-03
2.96874000e-02	-1.31260000e-02	1.99984000e-03
2.45023000e-02	1.13203000e-02	4.58203000e-03
1.51476000e-02	-3.02499000e-02	1.81004000e-02
-8.56530000e-03	-3.50922000e-02	9.02875000e-03
1.34218000e-02	-1.90461000e-02	5.96755000e-03
3.63170000e-02	1.24943000e-02	1.32640000e-02
2.78810000e-03	-2.71550000e-02	6.88809000e-03
-4.39368000e-03	-3.97489000e-02	2.00002000e-03
2.43336000e-02	-5.01826000e-03	1.11473000e-02
2.76015000e-02	-1.12424000e-02	1.55805000e-02
2.81811000e-02	2.88995000e-03	1.73778000e-02
1.23142000e-02	-3.79761000e-02	1.07554000e-02
2.02516000e-02	-1.81312000e-02	1.25770000e-02
2.73891000e-02	-2.90908000e-02	2.45554000e-03
4.07416000e-04	-3.61015000e-02	5.83820000e-03
8.88210000e-03	-3.89761000e-02	2.69821000e-03
3.79394000e-02	-1.26314000e-02	1.99910000e-03
5.75062000e-03	-3.29443000e-02	2.02304000e-03
1.64181000e-02	-1.74565000e-02	1.02201000e-02
3.28392000e-02	-1.46245000e-03	1.47293000e-02
1.81713000e-02	-2.38345000e-02	1.81012000e-02
1.83055000e-02	-1.10643000e-02	1.13211000e-02
-2.08369000e-03	-3.65813000e-02	9.04450000e-03
1.86391000e-02	-2.76262000e-02	1.20671000e-02
2.68792000e-02	-1.06662000e-02	8.31494000e-03
3.28972000e-02	-1.03253000e-02	1.46278000e-02
-5.69969000e-03	-3.48564000e-02	1.99985000e-03
1.50910000e-02	-2.25788000e-02	5.11267000e-03
3.12755000e-02	1.64996000e-02	1.41858000e-02
4.16957000e-03	-3.02474000e-02	4.75533000e-03
9.82217000e-03	-1.39448000e-02	1.04320000e-02
1.94140000e-03	-3.99331000e-02	1.99999000e-03
3.27433000e-02	1.27208000e-02	9.09616000e-03
3.17073000e-02	-1.80961000e-02	1.81009000e-02
1.95061000e-02	-7.63449000e-03	2.00911000e-03
6.68144000e-03	-2.97499000e-02	1.23019000e-02
2.69191000e-02	-1.32222000e-02	4.99875000e-03
-4.54353000e-03	-3.96441000e-02	8.29368000e-03
3.36793000e-02	-1.46179000e-02	1.80149000e-02
3.82617000e-02	-1.14301000e-02	6.21805000e-03
-1.17029000e-02	-3.82146000e-02	1.61461000e-02
3.61207000e-02	1.83862000e-03	9.25660000e-03
2.45404000e-02	-2.63665000e-02	1.81012000e-02
7.50150000e-03	-2.87412000e-02	1.68178000e-02
3.54395000e-03	-3.98335000e-02	1.81011000e-02
-1.52851000e-02	-3.68897000e-02	9.50370000e-03
1.64305000e-02	3.85869000e-03	2.00066000e-03
2.47545000e-02	1.33558000e-02	1.78519000e-02
-1.48401000e-03	-2.62343000e-02	1.33049000e-02
4.22599000e-03	-1.68622000e-02	1.08684000e-02
2.96479000e-02	-2.06127000e-02	5.06391000e-03
2.86305000e-02	3.06564000e-03	5.31841000e-03
1.74598000e-02	-3.59705000e-02	1.81002000e-02
3.36962000e-02	-2.14485000e-02	1.39348000e-02
1.78014000e-02	2.24960000e-03	1.26685000e-02
-4.62978000e-03	-3.23029000e-02	1.32802000e-02
1.85357000e-02	-2.06784000e-02	1.99985000e-03
7.20129000e-03	-1.88973000e-02	1.51881000e-02
5.42440000e-03	-3.63052000e-02	1.81007000e-02
-2.25660000e-05	-2.54348000e-02	2.01827000e-03
3.62317000e-02	-7.94430000e-03	1.56638000e-02
1.98644000e-02	-4.18570000e-04	1.48684000e-02
3.68295000e-02	-1.55816000e-02	1.45461000e-02
2.77157000e-02	-2.87935000e-02	1.79911000e-02
1.16632000e-02	-2.32649000e-02	2.00001000e-03
2.77423000e-02	-1.39656000e-02	1.26536000e-02
2.00862000e-02	6.85826000e-03	1.14529000e-02
2.79141000e-02	-6.04889000e-03	9.63286000e-03
2.22001000e-02	-1.63002000e-02	6.34644000e-03
3.59547000e-02	1.15846000e-03	1.81010000e-02
1.93988000e-02	-3.07969000e-02	1.43828000e-02
2.03419000e-02	-2.52940000e-02	1.50775000e-02
3.75711000e-02	-1.36987000e-02	1.81001000e-02
2.36823000e-02	1.26961000e-02	9.05337000e-03
3.58514000e-02	-4.19427000e-03	1.43255000e-02
2.31070000e-02	-2.35265000e-02	7.81649000e-03
2.63249000e-02	-2.06267000e-02	1.41090000e-02
2.94258000e-02	-2.56470000e-02	5.84787000e-03
6.49305000e-03	-2.47046000e-02	1.49435000e-02
2.71851000e-02	-1.78693000e-02	1.13423000e-02
3.84301000e-02	9.20096000e-03	1.40920000e-02
2.80462000e-02	7.93493000e-04	2.07814000e-03
3.57985000e-02	5.37768000e-03	1.14762000e-02
3.04407000e-02	7.04351000e-03	1.32601000e-02
1.45399000e-02	-2.25139000e-02	1.54292000e-02
9.38942000e-03	-1.98626000e-02	2.14028000e-03
[...]
POINT_DATA 469
SCALARS Radius double 1
LOOKUP_TABLE default
2.00000000e-03
2.00000000e-03
2.00000000e-03
2.00000000e-03
2.00000000e-03
2.00000000e-03
2.00000000e-03
2.00000000e-03
2.00000000e-03
2.00000000e-03
2.00000000e-03
2.00000000e-03
2.00000000e-03
2.00000000e-03
2.00000000e-03
2.00000000e-03
2.00000000e-03
2.00000000e-03
2.00000000e-03
2.00000000e-03
2.00000000e-03
2.00000000e-03
2.00000000e-03
2.00000000e-03
2.00000000e-03
2.00000000e-03
2.00000000e-03
2.00000000e-03
2.00000000e-03
2.00000000e-03
2.00000000e-03
2.00000000e-03
2.00000000e-03
2.00000000e-03
2.00000000e-03
2.00000000e-03
2.00000000e-03
2.00000000e-03
2.00000000e-03
2.00000000e-03
2.00000000e-03
2.00000000e-03
2.00000000e-03
2.00000000e-03
2.00000000e-03
2.00000000e-03
2.00000000e-03
2.00000000e-03
2.00000000e-03
2.00000000e-03
2.00000000e-03
2.00000000e-03
2.00000000e-03
2.00000000e-03
2.00000000e-03
2.00000000e-03
2.00000000e-03
2.00000000e-03
2.00000000e-03
2.00000000e-03
2.00000000e-03
2.00000000e-03
2.00000000e-03
2.00000000e-03
2.00000000e-03
2.00000000e-03
2.00000000e-03
2.00000000e-03
2.00000000e-03
2.00000000e-03
2.00000000e-03
2.00000000e-03
2.00000000e-03
2.00000000e-03
2.00000000e-03
2.00000000e-03
2.00000000e-03
2.00000000e-03
2.00000000e-03
2.00000000e-03
2.00000000e-03
2.00000000e-03
2.00000000e-03
2.00000000e-03
2.00000000e-03
2.00000000e-03
2.00000000e-03
2.00000000e-03
2.00000000e-03
2.00000000e-03
2.00000000e-03
2.00000000e-03
2.00000000e-03
2.00000000e-03
2.00000000e-03
2.00000000e-03
2.00000000e-03
2.00000000e-03
2.00000000e-03
2.00000000e-03
2.00000000e-03
2.00000000e-03
2.00000000e-03
2.00000000e-03
2.00000000e-03
2.00000000e-03
2.00000000e-03
2.00000000e-03
2.00000000e-03
2.00000000e-03
2.00000000e-03
2.00000000e-03
2.00000000e-03
2.00000000e-03
2.00000000e-03
2.00000000e-03
2.00000000e-03
2.00000000e-03
2.00000000e-03
2.00000000e-03
2.00000000e-03
2.00000000e-03
2.00000000e-03
2.00000000e-03
2.00000000e-03
2.00000000e-03
2.00000000e-03
2.00000000e-03
2.00000000e-03
2.00000000e-03
2.00000000e-03
2.00000000e-03
2.00000000e-03
2.00000000e-03
2.00000000e-03
2.00000000e-03
2.00000000e-03
2.00000000e-03
2.00000000e-03
2.00000000e-03
2.00000000e-03
2.00000000e-03
2.00000000e-03
2.00000000e-03
2.00000000e-03
2.00000000e-03
2.00000000e-03
2.00000000e-03
2.00000000e-03
2.00000000e-03
2.00000000e-03
2.00000000e-03
2.00000000e-03
2.00000000e-03
2.00000000e-03
2.00000000e-03
2.00000000e-03
2.00000000e-03
2.00000000e-03
2.00000000e-03
2.00000000e-03
2.00000000e-03
2.00000000e-03
2.00000000e-03
2.00000000e-03
2.00000000e-03
2.00000000e-03
2.00000000e-03
2.00000000e-03
2.00000000e-03
2.00000000e-03
2.00000000e-03
2.00000000e-03
2.00000000e-03
2.00000000e-03
2.00000000e-03
2.00000000e-03
2.00000000e-03
2.00000000e-03
2.00000000e-03
2.00000000e-03
2.00000000e-03
2.00000000e-03
2.00000000e-03
2.00000000e-03
2.00000000e-03
2.00000000e-03
2.00000000e-03
2.00000000e-03
2.00000000e-03
2.00000000e-03
2.00000000e-03
2.00000000e-03
2.00000000e-03
2.00000000e-03
2.00000000e-03
2.00000000e-03
2.00000000e-03
2.00000000e-03
2.00000000e-03
2.00000000e-03
2.00000000e-03
2.00000000e-03
2.00000000e-03
2.00000000e-03
2.00000000e-03
2.00000000e-03
2.00000000e-03
2.00000000e-03
2.00000000e-03
2.00000000e-03
2.00000000e-03
2.00000000e-03
2.00000000e-03
2.00000000e-03
2.00000000e-03
2.00000000e-03
2.00000000e-03
2.00000000e-03
2.00000000e-03
2.00000000e-03
2.00000000e-03
2.00000000e-03
2.00000000e-03
2.00000000e-03
2.00000000e-03
2.00000000e-03
2.00000000e-03
2.00000000e-03
2.00000000e-03
2.00000000e-03
2.00000000e-03
2.00000000e-03
2.00000000e-03
2.00000000e-03
2.00000000e-03
2.00000000e-03
2.00000000e-03
2.00000000e-03
2.00000000e-03
2.00000000e-03
2.00000000e-03
2.00000000e-03
2.00000000e-03
2.00000000e-03
2.00000000e-03
2.00000000e-03
2.00000000e-03
2.00000000e-03
2.00000000e-03
2.00000000e-03
2.00000000e-03
2.00000000e-03
2.00000000e-03
2.00000000e-03
2.00000000e-03
2.00000000e-03
2.00000000e-03
2.00000000e-03
2.00000000e-03
2.00000000e-03
2.00000000e-03
2.00000000e-03
2.00000000e-03
2.00000000e-03
2.00000000e-03
2.00000000e-03
2.00000000e-03
2.00000000e-03
2.00000000e-03
2.00000000e-03
2.00000000e-03
2.00000000e-03
2.00000000e-03
2.00000000e-03
2.00000000e-03
2.00000000e-03
2.00000000e-03
2.00000000e-03
2.00000000e-03
2.00000000e-03
2.00000000e-03
2.00000000e-03
2.00000000e-03
2.00000000e-03
2.00000000e-03
2.00000000e-03
2.00000000e-03
2.00000000e-03
2.00000000e-03
2.00000000e-03
2.00000000e-03
2.00000000e-03
2.00000000e-03
2.00000000e-03
2.00000000e-03
2.00000000e-03
2.00000000e-03
2.00000000e-03
2.00000000e-03
2.00000000e-03
2.00000000e-03
2.00000000e-03
2.00000000e-03
2.00000000e-03
2.00000000e-03
2.00000000e-03
2.00000000e-03
2.00000000e-03
2.00000000e-03
2.00000000e-03
2.00000000e-03
2.00000000e-03
2.00000000e-03
2.00000000e-03
2.00000000e-03
2.00000000e-03
2.00000000e-03
2.00000000e-03
2.00000000e-03
2.00000000e-03
2.00000000e-03
2.00000000e-03
2.00000000e-03
2.00000000e-03
2.00000000e-03
2.00000000e-03
2.00000000e-03
2.00000000e-03
2.00000000e-03
2.00000000e-03
2.00000000e-03
2.00000000e-03
2.00000000e-03
2.00000000e-03
2.00000000e-03
2.00000000e-03
2.00000000e-03
2.00000000e-03
2.00000000e-03
2.00000000e-03
2.00000000e-03
2.00000000e-03
2.00000000e-03
2.00000000e-03
2.00000000e-03
2.00000000e-03
2.00000000e-03
2.00000000e-03
2.00000000e-03
2.00000000e-03
2.00000000e-03
2.00000000e-03
2.00000000e-03
2.00000000e-03
2.00000000e-03
2.00000000e-03
2.00000000e-03
2.00000000e-03
2.00000000e-03
2.00000000e-03
2.00000000e-03
2.00000000e-03
2.00000000e-03
2.00000000e-03
2.00000000e-03
2.00000000e-03
2.00000000e-03
2.00000000e-03
2.00000000e-03
2.00000000e-03
2.00000000e-03
2.00000000e-03
2.00000000e-03
2.00000000e-03
2.00000000e-03
2.00000000e-03
2.00000000e-03
2.00000000e-03
2.00000000e-03
2.00000000e-03
2.00000000e-03
2.00000000e-03
2.00000000e-03
2.00000000e-03
2.00000000e-03
2.00000000e-03
2.00000000e-03
2.00000000e-03
2.00000000e-03
2.00000000e-03
2.00000000e-03
2.00000000e-03
2.00000000e-03
2.00000000e-03
2.00000000e-03
2.00000000e-03
2.00000000e-03
2.00000000e-03
2.00000000e-03
2.00000000e-03
2.00000000e-03
2.00000000e-03
2.00000000e-03
2.00000000e-03
2.00000000e-03
2.00000000e-03
2.00000000e-03
2.00000000e-03
2.00000000e-03
2.00000000e-03
2.00000000e-03
2.00000000e-03
2.00000000e-03
2.00000000e-03
2.00000000e-03
2.00000000e-03
2.00000000e-03
2.00000000e-03
2.00000000e-03
2.00000000e-03
2.00000000e-03
2.00000000e-03
2.00000000e-03
2.00000000e-03
2.00000000e-03
2.00000000e-03
2.00000000e-03
2.00000000e-03
2.00000000e-03
2.00000000e-03
2.00000000e-03
2.00000000e-03
2.00000000e-03
2.00000000e-03
2.00000000e-03
2.00000000e-03
2.00000000e-03
2.00000000e-03
2.00000000e-03
2.00000000e-03
2.00000000e-03
2.00000000e-03
2.00000000e-03
2.00000000e-03
2.00000000e-03
2.00000000e-03
2.00000000e-03
2.00000000e-03
2.00000000e-03
2.00000000e-03
2.00000000e-03
2.00000000e-03
2.00000000e-03
2.00000000e-03
2.00000000e-03
2.00000000e-03
2.00000000e-03
2.00000000e-03
2.00000000e-03
2.00000000e-03
2.00000000e-03
2.00000000e-03
2.00000000e-03
2.00000000e-03
2.00000000e-03
2.00000000e-03
2.00000000e-03
2.00000000e-03
