# vtk DataFile Version 2.0
Particle data
ASCII
DATASET POLYDATA
POINTS 469 double
1.64106000e-02	-3.21329000e-02	8.70537000e-03
6.07735000e-03	-2.98590000e-02	1.32972000e-02
5.10161000e-03	-1.82128000e-02	2.02576000e-03
3.96845000e-02	4.31362000e-03	1.81001000e-02
3.28790000e-03	-2.44103000e-02	2.08513000e-03
2.10329000e-02	-3.40072000e-02	2.47214000e-03
1.40338000e-02	-3.05887000e-02	1.15305000e-02
2.68739000e-02	-1.02023000e-02	1.74648000e-02
-2.87063000e-03	-3.41935000e-02	1.80996000e-02
3.18307000e-02	1.56920000e-02	1.19238000e-02
2.56098000e-02	-3.07064000e-02	1.78981000e-02
8.08425000e-03	-3.06720000e-02	1.81001000e-02
-1.34001000e-02	-3.41764000e-02	9.99423000e-03
1.35619000e-02	-5.97490000e-05	2.03358000e-03
2.28723000e-02	-3.27207000e-02	1.44916000e-02
3.24794000e-02	3.09679000e-03	1.20081000e-02
3.65987000e-02	-1.20281000e-03	1.41164000e-02
2.06519000e-03	-3.64610000e-02	1.99922000e-03
2.94848000e-02	-1.08009000e-02	1.37452000e-02
2.69036000e-02	-2.69125000e-02	1.11079000e-02
2.85331000e-02	-2.25311000e-02	2.02533000e-03
-9.38029000e-03	-3.55214000e-02	1.80984000e-02
3.60995000e-02	6.31038000e-03	1.12984000e-02
2.13036000e-02	-1.02253000e-02	2.40210000e-03
1.91446000e-02	5.91564000e-03	2.06808000e-03
3.45966000e-02	1.21558000e-02	1.45162000e-02
3.56157000e-02	-1.80924000e-02	1.42262000e-02
-1.90112000e-03	-3.66470000e-02	1.31604000e-02
3.96870000e-02	-4.77124000e-03	1.59167000e-02
1.84759000e-02	-1.41981000e-02	1.38270000e-02
-5.40188000e-04	-3.33977000e-02	1.12667000e-02
6.63271000e-03	-3.94288000e-02	1.99980000e-03
4.16820000e-03	-3.60327000e-02	5.37351000e-03
1.98911000e-02	2.04538000e-03	1.78610000e-02
2.44603000e-02	5.60092000e-03	9.13152000e-03
9.26840000e-03	-1.01330000e-02	7.98305000e-03
2.15126000e-02	-3.36085000e-02	6.43113000e-03
3.45595000e-02	-1.18189000e-02	9.62153000e-03
1.00744000e-02	-3.07125000e-02	1.09806000e-02
1.86406000e-02	-7.08458000e-04	2.29914000e-03
3.31155000e-02	-1.51667000e-02	7.97948000e-03
5.51772000e-03	-3.81063000e-02	1.53583000e-02
2.04651000e-02	1.27797000e-02	2.00001000e-03
1.55143000e-02	-2.31688000e-02	1.48058000e-02
3.39385000e-02	7.16255000e-03	1.45547000e-02
2.91239000e-02	-2.18434000e-02	1.12198000e-02
2.18647000e-02	-2.13046000e-02	1.39807000e-02
2.13232000e-02	-2.01132000e-02	5.38900000e-03
2.26307000e-02	-1.18708000e-02	1.05348000e-02
1.49139000e-02	-2.53775000e-02	1.81001000e-02
1.67894000e-02	-1.63882000e-02	2.01374000e-03
1.88482000e-02	-1.34244000e-02	3.73740000e-03
3.60142000e-02	3.49391000e-03	1.67377000e-02
2.72402000e-02	-8.80704000e-03	8.06636000e-03
3.77357000e-02	1.15855000e-02	4.42755000e-03
3.91112000e-02	-8.32855000e-03	1.41356000e-02
3.26420000e-02	1.26237000e-02	9.48940000e-03
2.56045000e-02	-2.08849000e-02	1.53365000e-02
3.47917000e-02	1.71697000e-02	1.41772000e-02
3.02939000e-02	1.58890000e-02	1.70578000e-02
1.80197000e-02	1.40010000e-02	1.80928000e-02
2.41314000e-02	-2.77145000e-03	1.12320000e-02
1.79223000e-02	-2.02325000e-02	1.80889000e-02
3.64221000e-02	-3.90822000e-03	1.06232000e-02
-2.00651000e-03	-2.84208000e-02	7.18923000e-03
3.02725000e-02	-2.60520000e-02	6.79277000e-03
2.29794000e-02	1.42348000e-02	5.42894000e-03
4.34462000e-03	-3.22027000e-02	1.80089000e-02
3.63287000e-02	1.44208000e-02	1.17114000e-02
1.52847000e-02	6.08375000e-03	9.87666000e-03
3.68331000e-02	-1.54419000e-02	6.41082000e-03
-8.87739000e-03	-3.66905000e-02	1.99988000e-03
2.03467000e-02	-2.77415000e-02	1.81016000e-02
3.17834000e-02	-1.88856000e-02	8.60338000e-03
1.04349000e-02	-3.78055000e-02	5.79338000e-03
3.50585000e-02	-1.91816000e-02	1.81002000e-02
3.12379000e-02	-1.00795000e-02	5.97517000e-03
1.21020000e-02	-2.63268000e-02	9.36913000e-03
-5.83068000e-03	-2.86359000e-02	1.32293000e-02
2.34386000e-02	-7.67926000e-03	1.80962000e-02
2.61585000e-02	-2.00896000e-02	5.37395000e-03
1.91162000e-02	-5.31943000e-04	7.91349000e-03
2.64709000e-02	1.36481000e-02	2.03162000e-03
2.13286000e-02	1.63553000e-02	1.79453000e-02
2.26433000e-02	3.96108000e-03	2.00123000e-03
3.02678000e-02	-2.61361000e-02	2.00644000e-03
9.24383000e-03	-3.62176000e-02	1.47477000e-02
3.64248000e-02	2.56796000e-03	1.27926000e-02
2.07987000e-02	6.40718000e-03	5.73254000e-03
3.10299000e-02	-2.25334000e-03	7.03373000e-03
3.01232000e-02	-2.06085000e-02	5.39889000e-03
1.48253000e-02	-2.74094000e-02	1.99993000e-03
-6.65253000e-03	-3.29878000e-02	6.93859000e-03
3.60815000e-02	-1.72229000e-02	9.91684000e-03
1.35864000e-02	-7.58997000e-03	1.25793000e-02
-6.16308000e-03	-3.95052000e-02	8.17788000e-03
3.61519000e-02	1.54340000e-03	8.93574000e-03
2.92882000e-02	1.06344000e-02	1.80316000e-02
1.92812000e-02	-1.24449000e-02	1.80421000e-02
1.44143000e-02	-1.37566000e-02	1.42382000e-02
2.97872000e-02	4.73024000e-04	2.00008000e-03
2.94884000e-02	-5.21260000e-04	1.15353000e-02
3.48777000e-02	-5.67364000e-03	1.38629000e-02
-1.71234000e-02	-3.60813000e-02	1.47566000e-02
3.35123000e-02	8.72255000e-03	9.33274000e-03
2.24004000e-02	-1.40515000e-02	2.01034000e-03
3.26135000e-02	3.34172000e-03	2.21269000e-03
2.40152000e-02	-7.29123000e-03	2.21288000e-03
2.34556000e-02	1.62952000e-02	2.00153000e-03
6.79982000e-03	-2.42804000e-02	5.48859000e-03
3.30406000e-02	6.97498000e-05	4.47330000e-03
3.10672000e-02	-1.99073000e-02	1.80951000e-02
2.52652000e-02	-2.27938000e-02	1.16718000e-02
3.61745000e-02	1.48500000e-03	2.43031000e-03
2.06311000e-02	9.84508000e-03	1.77261000e-02
3.02365000e-02	1.22882000e-02	2.00148000e-03
3.85188000e-02	-1.06680000e-02	1.02532000e-02
2.95758000e-02	4.34084000e-03	9.43359000e-03
2.62169000e-03	-3.00068000e-02	1.04569000e-02
6.76688000e-03	-3.93634000e-02	6.13120000e-03
1.97860000e-02	-2.60297000e-02	1.99953000e-03
1.80083000e-02	-1.62358000e-02	1.79808000e-02
2.95863000e-02	-2.68826000e-02	1.72559000e-02
1.21937000e-02	-1.57748000e-03	1.62531000e-02
-1.44025000e-02	-3.72985000e-02	1.79778000e-02
2.68107000e-02	-2.55986000e-02	4.58286000e-03
1.81862000e-02	-3.56109000e-02	5.26212000e-03
8.27728000e-03	-3.09149000e-02	7.29125000e-03
3.56313000e-02	-7.53386000e-03	9.12661000e-03
3.30441000e-02	-6.76985000e-03	2.05616000e-03
3.45933000e-02	-1.22256000e-02	5.62083000e-03
-1.15308000e-02	-3.82787000e-02	4.53637000e-03
2.73057000e-02	-1.85409000e-02	1.80986000e-02
3.46635000e-03	-3.62320000e-02	1.24811000e-02
1.92976000e-02	-1.04357000e-02	1.27476000e-02
2.64871000e-02	1.64367000e-02	5.98986000e-03
-1.86123000e-03	-3.38901000e-02	4.35527000e-03
1.72492000e-02	-3.27792000e-02	2.05404000e-03
2.98630000e-02	4.79673000e-03	1.45115000e-02
3.42351000e-02	-1.25170000e-02	1.74507000e-02
2.51692000e-02	1.71776000e-02	1.69220000e-02
2.37556000e-02	-2.55427000e-02	1.99862000e-03
2.55417000e-02	-2.55073000e-02	1.45956000e-02
3.84061000e-02	-1.11376000e-02	6.14836000e-03
1.81563000e-02	-2.85730000e-02	8.18324000e-03
2.74790000e-02	-2.90343000e-02	2.63629000e-03
3.85483000e-02	9.52707000e-03	1.04683000e-02
2.43130000e-02	-3.17513000e-02	2.00316000e-03
2.48680000e-02	-5.61882000e-03	8.52115000e-03
2.26304000e-02	4.95179000e-03	1.80952000e-02
2.16813000e-02	-2.61076000e-02	1.09669000e-02
2.76716000e-02	3.21344000e-03	1.81000000e-02
1.56551000e-02	-3.67600000e-02	1.14598000e-02
3.36705000e-02	-2.15027000e-02	1.51536000e-02
1.68150000e-02	-2.04220000e-02	1.21333000e-02
2.35040000e-02	-1.57621000e-02	1.02358000e-02
1.43867000e-02	-3.72156000e-02	5.60262000e-03
1.10401000e-02	-2.04005000e-02	4.89200000e-03
-1.84747000e-02	-3.54006000e-02	1.10203000e-02
2.06191000e-02	-2.21166000e-02	1.99967000e-03
-3.83897000e-03	-3.66141000e-02	6.68179000e-03
1.60994000e-02	-3.66078000e-02	1.99888000e-03
3.04180000e-02	1.86724000e-02	1.41878000e-02
3.36000000e-02	-6.11993000e-03	1.80978000e-02
2.73039000e-02	9.04399000e-03	2.53232000e-03
8.70205000e-03	-2.66212000e-02	1.27209000e-02
1.78354000e-02	-1.84592000e-02	6.76859000e-03
2.25914000e-02	-2.82986000e-02	4.65032000e-03
3.99787000e-02	3.20035000e-04	1.79910000e-02
3.20428000e-02	1.35212000e-03	8.43563000e-03
1.89513000e-02	-3.51874000e-02	9.16503000e-03
3.19669000e-02	1.59314000e-02	2.80619000e-03
2.05394000e-02	-2.04129000e-02	1.03125000e-02
9.04941000e-03	-3.22279000e-02	1.45440000e-02
1.42896000e-02	-2.69699000e-02	5.98544000e-03
1.24561000e-02	-3.40888000e-02	1.26483000e-02
1.69145000e-04	-3.99815000e-02	2.08248000e-03
-8.52229000e-03	-3.21084000e-02	1.61956000e-02
1.21865000e-02	-3.80736000e-02	1.81004000e-02
2.70776000e-02	-6.01234000e-03	5.21010000e-03
3.99278000e-02	1.01403000e-03	1.40423000e-02
2.18601000e-02	-5.45743000e-03	5.43445000e-03
1.29849000e-02	-2.18732000e-02	1.80916000e-02
3.96401000e-02	4.52032000e-03	7.25363000e-03
1.56205000e-02	-1.01197000e-02	1.53882000e-02
1.25931000e-02	-3.79134000e-02	9.15918000e-03
2.32334000e-02	-2.88971000e-02	1.33763000e-02
2.02650000e-03	-3.99136000e-02	1.30893000e-02
2.17998000e-02	-1.94284000e-02	1.75213000e-02
1.16172000e-02	-3.82616000e-02	1.99955000e-03
3.50516000e-02	9.68340000e-03	1.76271000e-02
3.04300000e-02	1.18853000e-02	1.44078000e-02
3.82024000e-02	1.04298000e-02	1.43843000e-02
3.97084000e-02	-3.77375000e-03	7.45796000e-03
2.19628000e-02	-9.34082000e-03	6.38578000e-03
2.96753000e-02	-7.41754000e-03	1.80986000e-02
2.72750000e-02	1.05828000e-02	1.12974000e-02
1.95860000e-02	-1.61771000e-02	9.54766000e-03
1.49918000e-02	-2.37212000e-02	1.07955000e-02
3.53319000e-02	1.77892000e-02	1.80966000e-02
3.42348000e-02	-2.04840000e-02	1.13284000e-02
2.76931000e-02	-2.31293000e-02	7.68722000e-03
3.24226000e-02	-4.38141000e-03	1.02687000e-02
-1.36297000e-02	-3.75711000e-02	1.23077000e-02
3.93419000e-02	6.62464000e-03	1.48537000e-02
2.37572000e-02	-2.17176000e-02	8.12733000e-03
2.32799000e-02	-1.57335000e-02	1.42324000e-02
3.67764000e-02	-1.56353000e-02	1.74032000e-02
-1.45140000e-03	-3.03319000e-02	1.40495000e-02
3.01169000e-02	-1.46480000e-02	1.46407000e-02
2.13765000e-02	1.47231000e-02	1.30432000e-02
3.39316000e-02	7.15979000e-03	2.00498000e-03
3.10814000e-02	1.65878000e-02	6.73673000e-03
2.92951000e-02	8.87414000e-04	1.52787000e-02
1.63560000e-03	-3.39374000e-02	1.51982000e-02
1.69128000e-02	7.90322000e-03	4.73021000e-03
[...]
POINT_DATA 469
SCALARS Radius double 1
LOOKUP_TABLE default
2.00000000e-03
2.00000000e-03
2.00000000e-03
2.00000000e-03
2.00000000e-03
2.00000000e-03
2.00000000e-03
2.00000000e-03
2.00000000e-03
2.00000000e-03
2.00000000e-03
2.00000000e-03
2.00000000e-03
2.00000000e-03
2.00000000e-03
2.00000000e-03
2.00000000e-03
2.00000000e-03
2.00000000e-03
2.00000000e-03
2.00000000e-03
2.00000000e-03
2.00000000e-03
2.00000000e-03
2.00000000e-03
2.00000000e-03
2.00000000e-03
2.00000000e-03
2.00000000e-03
2.00000000e-03
2.00000000e-03
2.00000000e-03
2.00000000e-03
2.00000000e-03
2.00000000e-03
2.00000000e-03
2.00000000e-03
2.00000000e-03
2.00000000e-03
2.00000000e-03
2.00000000e-03
2.00000000e-03
2.00000000e-03
2.00000000e-03
2.00000000e-03
2.00000000e-03
2.00000000e-03
2.00000000e-03
2.00000000e-03
2.00000000e-03
2.00000000e-03
2.00000000e-03
2.00000000e-03
2.00000000e-03
2.00000000e-03
2.00000000e-03
2.00000000e-03
2.00000000e-03
2.00000000e-03
2.00000000e-03
2.00000000e-03
2.00000000e-03
2.00000000e-03
2.00000000e-03
2.00000000e-03
2.00000000e-03
2.00000000e-03
2.00000000e-03
2.00000000e-03
2.00000000e-03
2.00000000e-03
2.00000000e-03
2.00000000e-03
2.00000000e-03
2.00000000e-03
2.00000000e-03
2.00000000e-03
2.00000000e-03
2.00000000e-03
2.00000000e-03
2.00000000e-03
2.00000000e-03
2.00000000e-03
2.00000000e-03
2.00000000e-03
2.00000000e-03
2.00000000e-03
2.00000000e-03
2.00000000e-03
2.00000000e-03
2.00000000e-03
2.00000000e-03
2.00000000e-03
2.00000000e-03
2.00000000e-03
2.00000000e-03
2.00000000e-03
2.00000000e-03
2.00000000e-03
2.00000000e-03
2.00000000e-03
2.00000000e-03
2.00000000e-03
2.00000000e-03
2.00000000e-03
2.00000000e-03
2.00000000e-03
2.00000000e-03
2.00000000e-03
2.00000000e-03
2.00000000e-03
2.00000000e-03
2.00000000e-03
2.00000000e-03
2.00000000e-03
2.00000000e-03
2.00000000e-03
2.00000000e-03
2.00000000e-03
2.00000000e-03
2.00000000e-03
2.00000000e-03
2.00000000e-03
2.00000000e-03
2.00000000e-03
2.00000000e-03
2.00000000e-03
2.00000000e-03
2.00000000e-03
2.00000000e-03
2.00000000e-03
2.00000000e-03
2.00000000e-03
2.00000000e-03
2.00000000e-03
2.00000000e-03
2.00000000e-03
2.00000000e-03
2.00000000e-03
2.00000000e-03
2.00000000e-03
2.00000000e-03
2.00000000e-03
2.00000000e-03
2.00000000e-03
2.00000000e-03
2.00000000e-03
2.00000000e-03
2.00000000e-03
2.00000000e-03
2.00000000e-03
2.00000000e-03
2.00000000e-03
2.00000000e-03
2.00000000e-03
2.00000000e-03
2.00000000e-03
2.00000000e-03
2.00000000e-03
2.00000000e-03
2.00000000e-03
2.00000000e-03
2.00000000e-03
2.00000000e-03
2.00000000e-03
2.00000000e-03
2.00000000e-03
2.00000000e-03
2.00000000e-03
2.00000000e-03
2.00000000e-03
2.00000000e-03
2.00000000e-03
2.00000000e-03
2.00000000e-03
2.00000000e-03
2.00000000e-03
2.00000000e-03
2.00000000e-03
2.00000000e-03
2.00000000e-03
2.00000000e-03
2.00000000e-03
2.00000000e-03
2.00000000e-03
2.00000000e-03
2.00000000e-03
2.00000000e-03
2.00000000e-03
2.00000000e-03
2.00000000e-03
2.00000000e-03
2.00000000e-03
2.00000000e-03
2.00000000e-03
2.00000000e-03
2.00000000e-03
2.00000000e-03
2.00000000e-03
2.00000000e-03
2.00000000e-03
2.00000000e-03
2.00000000e-03
2.00000000e-03
2.00000000e-03
2.00000000e-03
2.00000000e-03
2.00000000e-03
2.00000000e-03
2.00000000e-03
2.00000000e-03
2.00000000e-03
2.00000000e-03
2.00000000e-03
2.00000000e-03
2.00000000e-03
2.00000000e-03
2.00000000e-03
2.00000000e-03
2.00000000e-03
2.00000000e-03
2.00000000e-03
2.00000000e-03
2.00000000e-03
2.00000000e-03
2.00000000e-03
2.00000000e-03
2.00000000e-03
2.00000000e-03
2.00000000e-03
2.00000000e-03
2.00000000e-03
2.00000000e-03
2.00000000e-03
2.00000000e-03
2.00000000e-03
2.00000000e-03
2.00000000e-03
2.00000000e-03
2.00000000e-03
2.00000000e-03
2.00000000e-03
2.00000000e-03
2.00000000e-03
2.00000000e-03
2.00000000e-03
2.00000000e-03
2.00000000e-03
2.00000000e-03
2.00000000e-03
2.00000000e-03
2.00000000e-03
2.00000000e-03
2.00000000e-03
2.00000000e-03
2.00000000e-03
2.00000000e-03
2.00000000e-03
2.00000000e-03
2.00000000e-03
2.00000000e-03
2.00000000e-03
2.00000000e-03
2.00000000e-03
2.00000000e-03
2.00000000e-03
2.00000000e-03
2.00000000e-03
2.00000000e-03
2.00000000e-03
2.00000000e-03
2.00000000e-03
2.00000000e-03
2.00000000e-03
2.00000000e-03
2.00000000e-03
2.00000000e-03
2.00000000e-03
2.00000000e-03
2.00000000e-03
2.00000000e-03
2.00000000e-03
2.00000000e-03
2.00000000e-03
2.00000000e-03
2.00000000e-03
2.00000000e-03
2.00000000e-03
2.00000000e-03
2.00000000e-03
2.00000000e-03
2.00000000e-03
2.00000000e-03
2.00000000e-03
2.00000000e-03
2.00000000e-03
2.00000000e-03
2.00000000e-03
2.00000000e-03
2.00000000e-03
2.00000000e-03
2.00000000e-03
2.00000000e-03
2.00000000e-03
2.00000000e-03
2.00000000e-03
2.00000000e-03
2.00000000e-03
2.00000000e-03
2.00000000e-03
2.00000000e-03
2.00000000e-03
2.00000000e-03
2.00000000e-03
2.00000000e-03
2.00000000e-03
2.00000000e-03
2.00000000e-03
2.00000000e-03
2.00000000e-03
2.00000000e-03
2.00000000e-03
2.00000000e-03
2.00000000e-03
2.00000000e-03
2.00000000e-03
2.00000000e-03
2.00000000e-03
2.00000000e-03
2.00000000e-03
2.00000000e-03
2.00000000e-03
2.00000000e-03
2.00000000e-03
2.00000000e-03
2.00000000e-03
2.00000000e-03
2.00000000e-03
2.00000000e-03
2.00000000e-03
2.00000000e-03
2.00000000e-03
2.00000000e-03
2.00000000e-03
2.00000000e-03
2.00000000e-03
2.00000000e-03
2.00000000e-03
2.00000000e-03
2.00000000e-03
2.00000000e-03
2.00000000e-03
2.00000000e-03
2.00000000e-03
2.00000000e-03
2.00000000e-03
2.00000000e-03
2.00000000e-03
2.00000000e-03
2.00000000e-03
2.00000000e-03
2.00000000e-03
2.00000000e-03
2.00000000e-03
2.00000000e-03
2.00000000e-03
2.00000000e-03
2.00000000e-03
2.00000000e-03
2.00000000e-03
2.00000000e-03
2.00000000e-03
2.00000000e-03
2.00000000e-03
2.00000000e-03
2.00000000e-03
2.00000000e-03
2.00000000e-03
2.00000000e-03
2.00000000e-03
2.00000000e-03
2.00000000e-03
2.00000000e-03
2.00000000e-03
2.00000000e-03
2.00000000e-03
2.00000000e-03
2.00000000e-03
2.00000000e-03
2.00000000e-03
2.00000000e-03
2.00000000e-03
2.00000000e-03
2.00000000e-03
2.00000000e-03
2.00000000e-03
2.00000000e-03
2.00000000e-03
2.00000000e-03
2.00000000e-03
2.00000000e-03
2.00000000e-03
2.00000000e-03
2.00000000e-03
2.00000000e-03
2.00000000e-03
2.00000000e-03
2.00000000e-03
2.00000000e-03
2.00000000e-03
2.00000000e-03
2.00000000e-03
2.00000000e-03
2.00000000e-03
2.00000000e-03
2.00000000e-03
2.00000000e-03
2.00000000e-03
2.00000000e-03
2.00000000e-03
2.00000000e-03
2.00000000e-03
2.00000000e-03
2.00000000e-03
2.00000000e-03
2.00000000e-03
2.00000000e-03
2.00000000e-03
2.00000000e-03
2.00000000e-03
2.00000000e-03
2.00000000e-03
2.00000000e-03
2.00000000e-03
2.00000000e-03
2.00000000e-03
2.00000000e-03
2.00000000e-03
2.00000000e-03
2.00000000e-03
2.00000000e-03
2.00000000e-03
2.00000000e-03
2.00000000e-03
2.00000000e-03
2.00000000e-03
2.00000000e-03
2.00000000e-03
2.00000000e-03
2.00000000e-03
2.00000000e-03
2.00000000e-03
2.00000000e-03
2.00000000e-03
2.00000000e-03
2.00000000e-03
2.00000000e-03
2.00000000e-03
2.00000000e-03
2.00000000e-03
2.00000000e-03
2.00000000e-03
2.00000000e-03
2.00000000e-03
2.00000000e-03
2.00000000e-03
2.00000000e-03
2.00000000e-03
2.00000000e-03
