# vtk DataFile Version 2.0
Particle data
ASCII
DATASET POLYDATA
POINTS 469 double
3.23719000e-02	-1.59005000e-02	8.85464000e-03
2.32557000e-02	-2.31297000e-02	1.35405000e-02
1.20770000e-02	-2.88021000e-02	5.70765000e-03
2.70141000e-02	1.50175000e-02	1.77311000e-02
1.87198000e-02	-2.16694000e-02	2.53863000e-03
3.70828000e-02	-1.49339000e-02	2.50866000e-03
2.92490000e-02	-1.63376000e-02	1.13642000e-02
2.46091000e-02	-1.49654000e-04	1.78963000e-02
1.80687000e-02	-3.16083000e-02	1.81006000e-02
-1.35593000e-02	-3.19860000e-02	1.76274000e-02
3.89038000e-02	-9.21651000e-03	1.79620000e-02
2.47720000e-02	-1.99472000e-02	1.81006000e-02
6.44771000e-03	-3.94594000e-02	1.20471000e-02
1.24770000e-02	-2.57512000e-02	2.98009000e-03
3.79423000e-02	-1.24636000e-02	1.44644000e-02
1.70230000e-02	-2.75848000e-03	1.47401000e-02
2.82660000e-02	1.13790000e-02	1.44746000e-02
2.30971000e-02	-2.79842000e-02	2.00130000e-03
2.88398000e-02	3.68481000e-03	1.27777000e-02
3.76223000e-02	-5.92791000e-03	1.11084000e-02
3.61655000e-02	-1.81736000e-03	1.99919000e-03
1.31180000e-02	-3.46623000e-02	1.80947000e-02
7.57089000e-03	-5.04240000e-03	6.42172000e-03
1.53021000e-02	-1.37008000e-02	2.00103000e-03
7.80999000e-03	-2.63233000e-02	2.19499000e-03
1.09823000e-03	-1.21920000e-02	1.08269000e-02
3.93897000e-02	6.17921000e-03	1.38267000e-02
1.92459000e-02	-3.09891000e-02	1.37166000e-02
3.35505000e-02	1.74074000e-02	1.51013000e-02
2.20266000e-02	-1.13707000e-02	1.36140000e-02
1.80562000e-02	-2.93734000e-02	1.02015000e-02
2.87723000e-02	-2.77660000e-02	2.09372000e-03
2.42316000e-02	-2.66990000e-02	5.61446000e-03
4.83372000e-03	-2.90468000e-02	1.79865000e-02
-7.89189000e-03	-3.75492000e-02	1.13726000e-02
1.33406000e-02	-3.06924000e-02	1.15415000e-02
3.73411000e-02	-1.40337000e-02	6.67579000e-03
3.47861000e-02	9.61488000e-03	1.03159000e-02
2.61569000e-02	-1.89003000e-02	1.07696000e-02
1.32296000e-02	-2.19457000e-02	2.00535000e-03
3.54826000e-02	6.46346000e-03	7.95360000e-03
2.78218000e-02	-2.78555000e-02	1.51530000e-02
-1.00482000e-02	-3.75796000e-02	1.99996000e-03
2.60284000e-02	-1.25010000e-02	1.43369000e-02
1.22601000e-02	-2.11088000e-03	1.41058000e-02
3.62830000e-02	-8.83852000e-04	1.13084000e-02
3.04358000e-02	-5.28074000e-03	1.44916000e-02
2.66199000e-02	-7.21506000e-03	6.37472000e-03
1.76195000e-02	-1.22893000e-02	1.49195000e-02
2.50212000e-02	-1.41317000e-02	1.80964000e-02
2.16041000e-02	-1.03033000e-02	2.05150000e-03
1.85711000e-02	-1.21848000e-02	5.53655000e-03
2.66094000e-02	1.10554000e-02	1.81004000e-02
2.40628000e-02	-1.31790000e-03	5.85827000e-03
7.90685000e-03	-5.80984000e-03	1.21605000e-02
3.61304000e-02	1.43808000e-02	1.42329000e-02
-1.69569000e-02	-3.62201000e-02	6.34080000e-03
3.32021000e-02	-2.47740000e-03	1.51890000e-02
5.52364000e-04	-2.54443000e-02	1.21114000e-02
-9.23765000e-04	-2.37957000e-02	1.61596000e-02
-3.38763000e-03	-3.64487000e-02	1.80969000e-02
3.94661000e-03	-2.75498000e-02	1.03952000e-02
1.80238000e-02	-1.63512000e-02	1.75030000e-02
2.73718000e-02	1.07301000e-02	1.06307000e-02
1.20645000e-02	-3.26466000e-02	3.91131000e-03
3.98568000e-02	-2.57499000e-03	6.19804000e-03
-1.40200000e-02	-3.74469000e-02	2.45347000e-03
2.25495000e-02	-2.33492000e-02	1.81003000e-02
5.23836000e-04	-2.02444000e-02	5.87029000e-03
3.01797000e-03	-3.98193000e-02	9.81430000e-03
3.88402000e-02	9.17237000e-03	6.18391000e-03
1.44395000e-02	-3.52356000e-02	1.99945000e-03
3.26729000e-02	-1.05393000e-02	1.81003000e-02
3.66332000e-02	2.68599000e-03	8.58722000e-03
3.15247000e-02	-2.44490000e-02	5.97649000e-03
3.96954000e-02	4.86236000e-03	1.80796000e-02
2.94652000e-02	4.05091000e-03	7.26716000e-03
2.56807000e-02	-1.52690000e-02	9.16307000e-03
1.84784000e-03	-3.99489000e-02	1.80988000e-02
1.11298000e-02	-1.08769000e-02	1.68651000e-02
3.26138000e-02	-1.57139000e-03	5.67023000e-03
3.49774000e-03	-3.06092000e-02	7.48537000e-03
-1.43634000e-04	-3.03039000e-02	2.01792000e-03
7.38003000e-04	-2.69291000e-02	1.80996000e-02
-2.37179000e-03	-3.35659000e-02	2.65913000e-03
3.98370000e-02	-3.41224000e-03	2.00537000e-03
2.92275000e-02	-2.31749000e-02	1.48688000e-02
1.85090000e-02	7.20606000e-03	1.23204000e-02
1.77091000e-03	-3.70582000e-02	6.37903000e-03
1.67650000e-02	-2.49166000e-03	8.38227000e-03
3.62780000e-02	4.75238000e-04	5.27382000e-03
2.82631000e-02	-1.29596000e-02	1.99948000e-03
1.47109000e-02	-3.45492000e-02	6.27346000e-03
3.92333000e-02	7.24800000e-03	9.66815000e-03
1.62280000e-02	-2.67936000e-02	7.18920000e-03
1.89517000e-02	-3.52064000e-02	8.37522000e-03
2.16910000e-02	9.40122000e-03	6.77147000e-03
6.23620000e-03	-1.86022000e-02	1.34694000e-02
1.24377000e-02	-2.32817000e-02	1.80966000e-02
1.29176000e-02	-2.17825000e-02	7.92192000e-03
6.74586000e-03	-1.73691000e-02	6.04810000e-03
9.01226000e-03	-1.02222000e-02	9.06210000e-03
2.79359000e-02	7.45872000e-03	1.37470000e-02
6.62735000e-03	-3.94335000e-02	1.73083000e-02
1.93008000e-03	-2.30947000e-02	9.13690000e-03
2.40446000e-02	-7.13617000e-03	2.00058000e-03
1.87302000e-02	-6.04528000e-04	2.07526000e-03
1.79592000e-02	-8.24591000e-03	5.86941000e-03
-1.31807000e-02	-3.35626000e-02	1.99994000e-03
2.10415000e-02	-1.96054000e-02	5.09291000e-03
1.55334000e-02	1.26359000e-05	5.51287000e-03
3.65140000e-02	2.43899000e-03	1.81010000e-02
3.32011000e-02	-4.30267000e-03	1.14575000e-02
2.50113000e-02	9.79219000e-03	1.99992000e-03
2.39773000e-03	-3.36457000e-02	1.46377000e-02
2.54701000e-03	-2.12466000e-02	2.13222000e-03
3.80855000e-02	1.18756000e-02	1.02646000e-02
-5.32330000e-03	-2.63283000e-02	5.89695000e-03
1.84490000e-02	-2.54257000e-02	1.07087000e-02
2.89901000e-02	-2.75315000e-02	6.42854000e-03
3.10732000e-02	-9.38042000e-03	1.99990000e-03
1.34634000e-02	-2.00988000e-02	1.57600000e-02
3.96311000e-02	-5.30773000e-03	1.75258000e-02
-9.12120000e-04	-3.99814000e-02	5.87806000e-03
1.04632000e-02	-3.85953000e-02	1.80706000e-02
3.69435000e-02	-4.81529000e-03	4.56231000e-03
3.58305000e-02	-1.75147000e-02	5.41110000e-03
2.50126000e-02	-2.02686000e-02	7.19014000e-03
3.12511000e-02	1.14558000e-02	9.98080000e-03
2.71850000e-02	5.93649000e-03	1.99964000e-03
3.43584000e-02	9.54382000e-03	5.66359000e-03
1.30206000e-02	-3.78169000e-02	4.70390000e-03
3.30786000e-02	2.62420000e-04	1.81002000e-02
2.40667000e-02	-2.69573000e-02	1.27134000e-02
1.75047000e-02	-1.61843000e-02	9.30850000e-03
-4.62323000e-03	-3.96266000e-02	1.32984000e-02
1.85893000e-02	-2.87840000e-02	3.88223000e-03
3.32120000e-02	-1.58165000e-02	2.02772000e-03
1.18013000e-02	-1.38469000e-02	1.40577000e-02
3.48508000e-02	9.88113000e-03	1.77221000e-02
-1.90093000e-03	-3.33453000e-02	1.60593000e-02
3.43080000e-02	-6.41809000e-03	1.99980000e-03
3.54447000e-02	-5.70656000e-03	1.44560000e-02
3.70094000e-02	1.27222000e-02	5.97196000e-03
3.13626000e-02	-1.20571000e-02	8.39990000e-03
3.93126000e-02	-7.33823000e-03	2.55763000e-03
1.82255000e-02	9.22225000e-03	8.84521000e-03
3.83926000e-02	-1.11897000e-02	1.99964000e-03
1.71946000e-02	-6.36041000e-03	9.31351000e-03
3.56781000e-03	-2.41020000e-02	1.79870000e-02
3.22946000e-02	-8.89943000e-03	1.09688000e-02
1.29513000e-02	-7.36360000e-03	1.62793000e-02
3.46782000e-02	-1.98409000e-02	1.14306000e-02
3.96930000e-02	2.29101000e-03	1.47145000e-02
2.50597000e-02	-7.94664000e-03	1.13300000e-02
2.61506000e-02	-2.01507000e-03	1.09356000e-02
3.38253000e-02	-2.12015000e-02	5.57843000e-03
1.64622000e-02	-1.98729000e-02	5.30879000e-03
3.16824000e-03	-3.98612000e-02	1.43020000e-02
2.80288000e-02	-6.78673000e-03	2.01000000e-03
1.86905000e-02	-3.15553000e-02	6.76411000e-03
3.49630000e-02	-1.94111000e-02	1.99873000e-03
-1.57349000e-03	-3.78200000e-02	9.31288000e-03
3.11427000e-02	1.13358000e-02	1.81001000e-02
3.33298000e-03	-2.51679000e-02	2.00534000e-03
2.23291000e-02	-1.93048000e-02	1.28294000e-02
2.27034000e-02	-9.05377000e-03	7.12597000e-03
3.50261000e-02	-9.19810000e-03	4.78430000e-03
3.06783000e-02	1.91459000e-02	1.81000000e-02
1.40230000e-02	-6.44478000e-03	1.19313000e-02
3.62365000e-02	-1.68167000e-02	9.32793000e-03
-6.19503000e-03	-3.14742000e-02	1.02842000e-02
2.81823000e-02	-5.45456000e-03	1.11240000e-02
2.63342000e-02	-2.04463000e-02	1.44530000e-02
2.67499000e-02	-1.36841000e-02	5.63190000e-03
3.01258000e-02	-2.00597000e-02	1.25318000e-02
2.42157000e-02	-3.18232000e-02	1.99899000e-03
7.36358000e-03	-3.55833000e-02	1.81008000e-02
3.26686000e-02	-2.30485000e-02	1.80959000e-02
1.29283000e-02	-8.63635000e-03	5.36429000e-03
3.02677000e-02	1.48167000e-02	1.40574000e-02
7.48476000e-04	-3.33613000e-02	5.21836000e-03
2.21551000e-02	-1.69217000e-02	1.81003000e-02
2.38892000e-02	1.19124000e-02	8.98188000e-03
7.85794000e-03	-2.98175000e-02	1.00036000e-02
3.26448000e-02	-2.29958000e-02	9.53054000e-03
3.54195000e-02	-9.55732000e-03	1.33774000e-02
2.56836000e-02	-3.05871000e-02	1.31618000e-02
2.80845000e-02	-6.36689000e-03	1.81004000e-02
3.24809000e-02	-2.33279000e-02	1.99958000e-03
1.99708000e-02	5.31956000e-03	1.72344000e-02
3.35698000e-03	-2.96409000e-02	1.38590000e-02
8.96678000e-03	-2.60910000e-03	9.30037000e-03
3.08592000e-02	1.60868000e-02	8.07620000e-03
1.02815000e-02	-2.38233000e-02	5.71174000e-03
2.62364000e-02	3.50254000e-03	1.79966000e-02
6.38089000e-03	-3.35359000e-02	1.00446000e-02
2.06249000e-02	-7.83981000e-03	1.23632000e-02
2.53396000e-02	-1.12844000e-02	9.14479000e-03
6.58532000e-03	-1.02635000e-02	1.74854000e-02
3.97975000e-02	3.48456000e-03	1.08990000e-02
3.58627000e-02	-2.64366000e-03	7.74243000e-03
2.08665000e-02	3.44088000e-03	9.67939000e-03
1.12485000e-02	-3.83493000e-02	1.16809000e-02
1.82687000e-02	8.87543000e-03	1.59925000e-02
3.10398000e-02	-4.36166000e-03	8.09254000e-03
2.77214000e-02	-2.36716000e-03	1.48677000e-02
3.90315000e-02	8.73937000e-03	1.73568000e-02
1.57770000e-02	-2.94989000e-02	1.50361000e-02
3.28470000e-02	4.59131000e-03	1.43994000e-02
-7.90789000e-03	-3.73998000e-02	1.53692000e-02
1.42484000e-02	1.43571000e-03	2.00116000e-03
-7.52257000e-03	-3.35229000e-02	1.42576000e-02
1.04481000e-02	-9.72830000e-03	1.29776000e-02
2.08569000e-02	-2.68370000e-02	1.50963000e-02
1.06252000e-02	-2.91579000e-02	1.99891000e-03
[...]
POINT_DATA 469
SCALARS Radius double 1
LOOKUP_TABLE default
2.00000000e-03
2.00000000e-03
2.00000000e-03
2.00000000e-03
2.00000000e-03
2.00000000e-03
2.00000000e-03
2.00000000e-03
2.00000000e-03
2.00000000e-03
2.00000000e-03
2.00000000e-03
2.00000000e-03
2.00000000e-03
2.00000000e-03
2.00000000e-03
2.00000000e-03
2.00000000e-03
2.00000000e-03
2.00000000e-03
2.00000000e-03
2.00000000e-03
2.00000000e-03
2.00000000e-03
2.00000000e-03
2.00000000e-03
2.00000000e-03
2.00000000e-03
2.00000000e-03
2.00000000e-03
2.00000000e-03
2.00000000e-03
2.00000000e-03
2.00000000e-03
2.00000000e-03
2.00000000e-03
2.00000000e-03
2.00000000e-03
2.00000000e-03
2.00000000e-03
2.00000000e-03
2.00000000e-03
2.00000000e-03
2.00000000e-03
2.00000000e-03
2.00000000e-03
2.00000000e-03
2.00000000e-03
2.00000000e-03
2.00000000e-03
2.00000000e-03
2.00000000e-03
2.00000000e-03
2.00000000e-03
2.00000000e-03
2.00000000e-03
2.00000000e-03
2.00000000e-03
2.00000000e-03
2.00000000e-03
2.00000000e-03
2.00000000e-03
2.00000000e-03
2.00000000e-03
2.00000000e-03
2.00000000e-03
2.00000000e-03
2.00000000e-03
2.00000000e-03
2.00000000e-03
2.00000000e-03
2.00000000e-03
2.00000000e-03
2.00000000e-03
2.00000000e-03
2.00000000e-03
2.00000000e-03
2.00000000e-03
2.00000000e-03
2.00000000e-03
2.00000000e-03
2.00000000e-03
2.00000000e-03
2.00000000e-03
2.00000000e-03
2.00000000e-03
2.00000000e-03
2.00000000e-03
2.00000000e-03
2.00000000e-03
2.00000000e-03
2.00000000e-03
2.00000000e-03
2.00000000e-03
2.00000000e-03
2.00000000e-03
2.00000000e-03
2.00000000e-03
2.00000000e-03
2.00000000e-03
2.00000000e-03
2.00000000e-03
2.00000000e-03
2.00000000e-03
2.00000000e-03
2.00000000e-03
2.00000000e-03
2.00000000e-03
2.00000000e-03
2.00000000e-03
2.00000000e-03
2.00000000e-03
2.00000000e-03
2.00000000e-03
2.00000000e-03
2.00000000e-03
2.00000000e-03
2.00000000e-03
2.00000000e-03
2.00000000e-03
2.00000000e-03
2.00000000e-03
2.00000000e-03
2.00000000e-03
2.00000000e-03
2.00000000e-03
2.00000000e-03
2.00000000e-03
2.00000000e-03
2.00000000e-03
2.00000000e-03
2.00000000e-03
2.00000000e-03
2.00000000e-03
2.00000000e-03
2.00000000e-03
2.00000000e-03
2.00000000e-03
2.00000000e-03
2.00000000e-03
2.00000000e-03
2.00000000e-03
2.00000000e-03
2.00000000e-03
2.00000000e-03
2.00000000e-03
2.00000000e-03
2.00000000e-03
2.00000000e-03
2.00000000e-03
2.00000000e-03
2.00000000e-03
2.00000000e-03
2.00000000e-03
2.00000000e-03
2.00000000e-03
2.00000000e-03
2.00000000e-03
2.00000000e-03
2.00000000e-03
2.00000000e-03
2.00000000e-03
2.00000000e-03
2.00000000e-03
2.00000000e-03
2.00000000e-03
2.00000000e-03
2.00000000e-03
2.00000000e-03
2.00000000e-03
2.00000000e-03
2.00000000e-03
2.00000000e-03
2.00000000e-03
2.00000000e-03
2.00000000e-03
2.00000000e-03
2.00000000e-03
2.00000000e-03
2.00000000e-03
2.00000000e-03
2.00000000e-03
2.00000000e-03
2.00000000e-03
2.00000000e-03
2.00000000e-03
2.00000000e-03
2.00000000e-03
2.00000000e-03
2.00000000e-03
2.00000000e-03
2.00000000e-03
2.00000000e-03
2.00000000e-03
2.00000000e-03
2.00000000e-03
2.00000000e-03
2.00000000e-03
2.00000000e-03
2.00000000e-03
2.00000000e-03
2.00000000e-03
2.00000000e-03
2.00000000e-03
2.00000000e-03
2.00000000e-03
2.00000000e-03
2.00000000e-03
2.00000000e-03
2.00000000e-03
2.00000000e-03
2.00000000e-03
2.00000000e-03
2.00000000e-03
2.00000000e-03
2.00000000e-03
2.00000000e-03
2.00000000e-03
2.00000000e-03
2.00000000e-03
2.00000000e-03
2.00000000e-03
2.00000000e-03
2.00000000e-03
2.00000000e-03
2.00000000e-03
2.00000000e-03
2.00000000e-03
2.00000000e-03
2.00000000e-03
2.00000000e-03
2.00000000e-03
2.00000000e-03
2.00000000e-03
2.00000000e-03
2.00000000e-03
2.00000000e-03
2.00000000e-03
2.00000000e-03
2.00000000e-03
2.00000000e-03
2.00000000e-03
2.00000000e-03
2.00000000e-03
2.00000000e-03
2.00000000e-03
2.00000000e-03
2.00000000e-03
2.00000000e-03
2.00000000e-03
2.00000000e-03
2.00000000e-03
2.00000000e-03
2.00000000e-03
2.00000000e-03
2.00000000e-03
2.00000000e-03
2.00000000e-03
2.00000000e-03
2.00000000e-03
2.00000000e-03
2.00000000e-03
2.00000000e-03
2.00000000e-03
2.00000000e-03
2.00000000e-03
2.00000000e-03
2.00000000e-03
2.00000000e-03
2.00000000e-03
2.00000000e-03
2.00000000e-03
2.00000000e-03
2.00000000e-03
2.00000000e-03
2.00000000e-03
2.00000000e-03
2.00000000e-03
2.00000000e-03
2.00000000e-03
2.00000000e-03
2.00000000e-03
2.00000000e-03
2.00000000e-03
2.00000000e-03
2.00000000e-03
2.00000000e-03
2.00000000e-03
2.00000000e-03
2.00000000e-03
2.00000000e-03
2.00000000e-03
2.00000000e-03
2.00000000e-03
2.00000000e-03
2.00000000e-03
2.00000000e-03
2.00000000e-03
2.00000000e-03
2.00000000e-03
2.00000000e-03
2.00000000e-03
2.00000000e-03
2.00000000e-03
2.00000000e-03
2.00000000e-03
2.00000000e-03
2.00000000e-03
2.00000000e-03
2.00000000e-03
2.00000000e-03
2.00000000e-03
2.00000000e-03
2.00000000e-03
2.00000000e-03
2.00000000e-03
2.00000000e-03
2.00000000e-03
2.00000000e-03
2.00000000e-03
2.00000000e-03
2.00000000e-03
2.00000000e-03
2.00000000e-03
2.00000000e-03
2.00000000e-03
2.00000000e-03
2.00000000e-03
2.00000000e-03
2.00000000e-03
2.00000000e-03
2.00000000e-03
2.00000000e-03
2.00000000e-03
2.00000000e-03
2.00000000e-03
2.00000000e-03
2.00000000e-03
2.00000000e-03
2.00000000e-03
2.00000000e-03
2.00000000e-03
2.00000000e-03
2.00000000e-03
2.00000000e-03
2.00000000e-03
2.00000000e-03
2.00000000e-03
2.00000000e-03
2.00000000e-03
2.00000000e-03
2.00000000e-03
2.00000000e-03
2.00000000e-03
2.00000000e-03
2.00000000e-03
2.00000000e-03
2.00000000e-03
2.00000000e-03
2.00000000e-03
2.00000000e-03
2.00000000e-03
2.00000000e-03
2.00000000e-03
2.00000000e-03
2.00000000e-03
2.00000000e-03
2.00000000e-03
2.00000000e-03
2.00000000e-03
2.00000000e-03
2.00000000e-03
2.00000000e-03
2.00000000e-03
2.00000000e-03
2.00000000e-03
2.00000000e-03
2.00000000e-03
2.00000000e-03
2.00000000e-03
2.00000000e-03
2.00000000e-03
2.00000000e-03
2.00000000e-03
2.00000000e-03
2.00000000e-03
2.00000000e-03
2.00000000e-03
2.00000000e-03
2.00000000e-03
2.00000000e-03
2.00000000e-03
2.00000000e-03
2.00000000e-03
2.00000000e-03
2.00000000e-03
2.00000000e-03
2.00000000e-03
2.00000000e-03
2.00000000e-03
2.00000000e-03
2.00000000e-03
2.00000000e-03
2.00000000e-03
2.00000000e-03
2.00000000e-03
2.00000000e-03
2.00000000e-03
2.00000000e-03
2.00000000e-03
2.00000000e-03
2.00000000e-03
2.00000000e-03
2.00000000e-03
2.00000000e-03
2.00000000e-03
2.00000000e-03
2.00000000e-03
2.00000000e-03
2.00000000e-03
2.00000000e-03
2.00000000e-03
2.00000000e-03
2.00000000e-03
2.00000000e-03
2.00000000e-03
2.00000000e-03
2.00000000e-03
2.00000000e-03
2.00000000e-03
2.00000000e-03
2.00000000e-03
2.00000000e-03
2.00000000e-03
2.00000000e-03
2.00000000e-03
2.00000000e-03
2.00000000e-03
2.00000000e-03
2.00000000e-03
2.00000000e-03
2.00000000e-03
2.00000000e-03
2.00000000e-03
2.00000000e-03
2.00000000e-03
2.00000000e-03
2.00000000e-03
2.00000000e-03
2.00000000e-03
2.00000000e-03
2.00000000e-03
2.00000000e-03
2.00000000e-03
2.00000000e-03
2.00000000e-03
2.00000000e-03
2.00000000e-03
2.00000000e-03
2.00000000e-03
2.00000000e-03
2.00000000e-03
2.00000000e-03
2.00000000e-03
2.00000000e-03
2.00000000e-03
2.00000000e-03
2.00000000e-03
2.00000000e-03
