# vtk DataFile Version 2.0
Particle data
ASCII
DATASET POLYDATA
POINTS 469 double
8.25906000e-03	-3.50153000e-02	8.46703000e-03
1.01262000e-02	-1.80888000e-02	6.58643000e-03
2.05670000e-02	6.97435000e-03	2.01255000e-03
3.95160000e-02	-6.15049000e-03	1.79532000e-02
1.82071000e-02	3.88495000e-03	4.04771000e-03
1.19299000e-02	-3.81658000e-02	2.43391000e-03
7.09345000e-03	-3.26371000e-02	1.14639000e-02
2.44859000e-02	-1.63725000e-02	1.76148000e-02
-3.87336000e-03	-2.88466000e-02	1.79373000e-02
3.57360000e-02	7.99956000e-03	1.10800000e-02
1.62224000e-02	-3.65487000e-02	1.78465000e-02
5.85239000e-03	-2.55845000e-02	1.73071000e-02
-4.72357000e-03	-3.01102000e-02	1.38184000e-02
2.85683000e-02	1.88288000e-02	2.00015000e-03
1.35403000e-02	-3.75552000e-02	1.46407000e-02
3.32149000e-02	-3.48168000e-03	1.21793000e-02
3.52362000e-02	-9.97536000e-03	1.42554000e-02
3.27636000e-04	-2.69132000e-02	2.67756000e-03
2.65051000e-02	-1.77519000e-02	1.41151000e-02
1.89257000e-02	-3.29945000e-02	1.11338000e-02
2.19769000e-02	-2.90571000e-02	2.00931000e-03
-2.01322000e-03	-2.15543000e-02	1.80916000e-02
3.69467000e-02	-2.30433000e-03	1.13511000e-02
1.93598000e-02	-1.54862000e-02	2.24472000e-03
2.72212000e-02	8.55203000e-03	1.99996000e-03
3.74623000e-02	4.46216000e-03	1.47978000e-02
3.02106000e-02	-2.61854000e-02	1.43962000e-02
-4.98561000e-03	-3.40424000e-02	1.29859000e-02
3.74663000e-02	-1.39297000e-02	1.68080000e-02
1.81943000e-02	-1.11536000e-02	1.45145000e-02
5.26185000e-05	-2.42091000e-02	1.27300000e-02
-4.12846000e-03	-3.97761000e-02	2.01109000e-03
9.63613000e-05	-3.27048000e-02	6.00436000e-03
2.18939000e-02	-4.19018000e-04	1.81001000e-02
2.81026000e-02	1.22324000e-03	9.08610000e-03
2.63762000e-02	1.76254000e-02	1.19474000e-02
1.15046000e-02	-3.60548000e-02	5.83515000e-03
3.05925000e-02	-1.97828000e-02	9.46194000e-03
7.00103000e-03	-2.72242000e-02	1.10615000e-02
2.56320000e-02	7.99029000e-04	2.55314000e-03
2.83610000e-02	-2.27815000e-02	8.03771000e-03
-3.37117000e-03	-3.75589000e-02	1.41812000e-02
3.01153000e-02	1.13766000e-02	2.00013000e-03
1.03918000e-02	-2.59145000e-02	1.56282000e-02
3.60691000e-02	9.36271000e-04	1.35233000e-02
2.26225000e-02	-2.85262000e-02	1.10003000e-02
1.75375000e-02	-2.37267000e-02	1.36046000e-02
1.62213000e-02	-2.47134000e-02	5.44573000e-03
1.94922000e-02	-1.49834000e-02	1.08433000e-02
8.57193000e-03	-2.84852000e-02	1.80960000e-02
1.30318000e-02	-1.83866000e-02	2.20304000e-03
1.55786000e-02	-1.56147000e-02	3.55397000e-03
3.62323000e-02	-4.48067000e-03	1.63948000e-02
2.50118000e-02	-1.49586000e-02	8.11726000e-03
3.99403000e-02	1.78051000e-03	4.72404000e-03
3.62842000e-02	-1.67004000e-02	1.41764000e-02
3.56382000e-02	4.51412000e-03	9.12124000e-03
2.01936000e-02	-2.64189000e-02	1.49062000e-02
3.88453000e-02	9.15656000e-03	1.41163000e-02
3.52671000e-02	9.64926000e-03	1.68285000e-02
2.95224000e-02	2.08171000e-02	1.60573000e-02
2.52058000e-02	-6.61390000e-03	1.15441000e-02
1.36071000e-02	-2.40641000e-02	1.81001000e-02
3.46755000e-02	-1.16849000e-02	1.01410000e-02
1.94843000e-02	1.02389000e-02	4.56969000e-03
2.23975000e-02	-3.30906000e-02	6.94235000e-03
3.22279000e-02	1.13893000e-02	5.39703000e-03
7.50846000e-03	-1.63760000e-02	1.79554000e-02
3.94044000e-02	6.12250000e-03	1.15710000e-02
2.92219000e-02	1.50099000e-02	1.04960000e-02
3.16290000e-02	-2.43730000e-02	6.35289000e-03
1.47094000e-03	-2.05025000e-02	2.22276000e-03
1.23280000e-02	-3.18856000e-02	1.81003000e-02
2.62155000e-02	-2.61161000e-02	8.56264000e-03
1.02575000e-03	-3.84187000e-02	5.73819000e-03
2.89253000e-02	-2.69765000e-02	1.81003000e-02
2.81211000e-02	-1.77628000e-02	5.79595000e-03
9.90051000e-03	-2.20931000e-02	6.62037000e-03
1.26463000e-02	-8.88938000e-03	6.29631000e-03
2.14817000e-02	-1.34869000e-02	1.81012000e-02
2.03446000e-02	-2.59487000e-02	5.48473000e-03
2.47183000e-02	3.41241000e-04	6.95502000e-03
3.40836000e-02	1.03727000e-02	2.00251000e-03
3.09786000e-02	1.73523000e-02	1.74259000e-02
2.68467000e-02	4.56966000e-03	2.00001000e-03
2.25774000e-02	-3.30105000e-02	1.99960000e-03
2.74874000e-04	-3.67141000e-02	1.18334000e-02
3.59676000e-02	-6.30554000e-03	1.28453000e-02
2.76774000e-02	9.76188000e-03	5.78499000e-03
2.98563000e-02	-9.72643000e-03	6.76113000e-03
2.41292000e-02	-2.75509000e-02	5.46700000e-03
6.86971000e-03	-3.00494000e-02	2.10320000e-03
9.92978000e-03	-1.34428000e-02	5.68251000e-03
3.09436000e-02	-2.52173000e-02	1.02022000e-02
2.42177000e-02	1.07375000e-02	1.56366000e-02
-1.41110000e-02	-3.55062000e-02	4.76832000e-03
3.54338000e-02	-7.18886000e-03	8.98089000e-03
3.23418000e-02	3.70343000e-03	1.81001000e-02
1.67100000e-02	-1.67113000e-02	1.81002000e-02
1.96034000e-02	-5.90142000e-03	1.27444000e-02
2.97241000e-02	-6.04831000e-03	2.00213000e-03
2.97887000e-02	-5.39340000e-03	1.12914000e-02
3.26175000e-02	-1.28625000e-02	1.33621000e-02
-4.37308000e-03	-1.78003000e-02	1.77335000e-02
3.54377000e-02	5.23232000e-04	8.95917000e-03
1.89032000e-02	-1.94525000e-02	2.00362000e-03
3.32592000e-02	-4.19499000e-03	2.24909000e-03
2.28780000e-02	-1.34448000e-02	1.99975000e-03
3.29735000e-02	1.42151000e-02	2.00510000e-03
2.14797000e-02	4.47679000e-03	6.86671000e-03
3.24731000e-02	-7.88877000e-03	4.29243000e-03
2.47757000e-02	-2.75751000e-02	1.80605000e-02
1.87327000e-02	-2.86474000e-02	1.19232000e-02
3.58826000e-02	-7.21244000e-03	2.31391000e-03
2.99598000e-02	1.35416000e-02	1.80876000e-02
3.48965000e-02	6.45789000e-03	2.09899000e-03
3.45555000e-02	-2.00773000e-02	1.00786000e-02
3.13435000e-02	-1.55600000e-03	9.21493000e-03
8.58400000e-03	-1.65335000e-02	1.12654000e-02
-2.95370000e-03	-3.97837000e-02	5.84493000e-03
1.23033000e-02	-3.02593000e-02	2.00273000e-03
1.49332000e-02	-2.02926000e-02	1.79800000e-02
2.14575000e-02	-3.37310000e-02	1.67655000e-02
2.71990000e-02	1.57734000e-02	1.53961000e-02
-1.60331000e-02	-3.25712000e-02	1.80868000e-02
1.92428000e-02	-3.15662000e-02	4.59938000e-03
8.89205000e-03	-3.89651000e-02	4.99817000e-03
5.54354000e-03	-1.92518000e-02	6.30914000e-03
3.32937000e-02	-1.51282000e-02	8.64827000e-03
3.05662000e-02	-1.46965000e-02	2.00681000e-03
3.10229000e-02	-2.05032000e-02	5.55156000e-03
-1.38819000e-02	-3.41469000e-02	9.20850000e-03
2.19347000e-02	-2.47562000e-02	1.81003000e-02
7.70333000e-03	-1.26780000e-02	1.45552000e-02
2.08582000e-02	-9.61693000e-03	1.19573000e-02
3.58171000e-02	1.50924000e-02	5.86155000e-03
5.23255000e-03	-1.52457000e-02	6.46088000e-03
8.24937000e-03	-3.63968000e-02	1.99988000e-03
3.17373000e-02	-4.56234000e-04	1.43382000e-02
3.05784000e-02	-1.91589000e-02	1.73127000e-02
3.35116000e-02	1.32008000e-02	1.62802000e-02
1.63064000e-02	-3.07828000e-02	1.99930000e-03
1.80851000e-02	-3.14316000e-02	1.47198000e-02
3.50080000e-02	-1.92281000e-02	6.19671000e-03
1.04777000e-02	-3.17797000e-02	7.69457000e-03
1.92166000e-02	-3.50713000e-02	2.67395000e-03
3.98974000e-02	4.81304000e-04	1.09083000e-02
1.55323000e-02	-3.64821000e-02	2.00171000e-03
2.50708000e-02	-9.60500000e-03	8.89240000e-03
2.55555000e-02	1.91268000e-03	1.81000000e-02
1.43817000e-02	-3.04089000e-02	1.07590000e-02
2.92541000e-02	-1.59478000e-03	1.81004000e-02
5.90138000e-03	-3.94911000e-02	1.12542000e-02
2.71859000e-02	-2.92947000e-02	1.53441000e-02
1.20621000e-02	-2.26536000e-02	1.40122000e-02
1.99537000e-02	-1.89645000e-02	1.04196000e-02
4.87821000e-03	-3.95876000e-02	5.90092000e-03
2.20604000e-02	2.69854000e-03	2.05190000e-03
6.32532000e-03	-6.36456000e-03	4.52434000e-03
1.43928000e-02	-2.68464000e-02	2.00082000e-03
-6.19300000e-03	-3.22426000e-02	8.11191000e-03
5.81060000e-03	-3.95669000e-02	2.00031000e-03
3.76666000e-02	1.29789000e-02	1.41416000e-02
3.13157000e-02	-1.30014000e-02	1.81002000e-02
3.19877000e-02	3.46712000e-03	2.01411000e-03
1.34994000e-02	-1.40506000e-02	8.49922000e-03
1.45776000e-02	-2.11467000e-02	6.20411000e-03
1.44708000e-02	-3.32096000e-02	4.59505000e-03
3.87016000e-02	-1.00647000e-02	1.80705000e-02
3.16756000e-02	-6.35095000e-03	7.89753000e-03
9.37252000e-03	-3.88225000e-02	8.96695000e-03
3.80966000e-02	1.07919000e-02	2.66196000e-03
1.61410000e-02	-2.38350000e-02	9.85799000e-03
4.20858000e-03	-3.25901000e-02	1.42341000e-02
6.67371000e-03	-2.91883000e-02	6.64375000e-03
4.06427000e-03	-3.64167000e-02	1.30787000e-02
-9.15993000e-03	-3.89320000e-02	2.55698000e-03
3.08847000e-03	-1.46581000e-02	1.76940000e-02
1.80367000e-03	-3.84846000e-02	1.81002000e-02
2.63374000e-02	-1.10372000e-02	5.38156000e-03
3.90314000e-02	-8.71382000e-03	1.43200000e-02
2.24073000e-02	-1.05202000e-02	4.68748000e-03
9.63654000e-03	-2.28594000e-02	1.80997000e-02
3.95774000e-02	-5.25579000e-03	7.36134000e-03
2.06945000e-02	-3.13790000e-03	1.54226000e-02
2.51715000e-03	-3.98683000e-02	9.15522000e-03
1.51207000e-02	-3.36472000e-02	1.29969000e-02
-6.85064000e-03	-3.92950000e-02	1.26057000e-02
1.75359000e-02	-2.47220000e-02	1.76056000e-02
8.79779000e-04	-3.99737000e-02	2.05590000e-03
3.69813000e-02	1.67646000e-03	1.79443000e-02
3.40309000e-02	6.61091000e-03	1.45402000e-02
3.98886000e-02	1.23450000e-03	1.48358000e-02
3.79258000e-02	-1.25502000e-02	7.86282000e-03
2.13243000e-02	-1.42625000e-02	5.59356000e-03
2.80872000e-02	-1.06431000e-02	1.79859000e-02
3.17456000e-02	6.22808000e-03	1.06314000e-02
1.63666000e-02	-1.85767000e-02	8.69285000e-03
1.13606000e-02	-2.38007000e-02	1.01917000e-02
3.89676000e-02	8.81987000e-03	1.81001000e-02
2.83768000e-02	-2.80533000e-02	1.13717000e-02
2.10080000e-02	-2.93736000e-02	7.44055000e-03
3.04526000e-02	-1.23388000e-02	1.00407000e-02
-1.12934000e-02	-3.30786000e-02	1.78645000e-02
3.98495000e-02	-2.97302000e-03	1.45800000e-02
1.78056000e-02	-2.71388000e-02	8.33716000e-03
1.91581000e-02	-1.66490000e-02	1.44646000e-02
3.17933000e-02	-2.42100000e-02	1.77545000e-02
9.69543000e-03	-6.81377000e-03	8.08308000e-03
2.59111000e-02	-2.16606000e-02	1.47193000e-02
3.29833000e-02	1.51504000e-02	1.28279000e-02
3.59954000e-02	-7.93705000e-04	1.99993000e-03
3.79474000e-02	1.17050000e-02	6.55341000e-03
3.00451000e-02	-4.06416000e-03	1.50550000e-02
6.54451000e-03	-9.04065000e-03	1.28545000e-02
3.03282000e-02	1.48557000e-02	6.01139000e-03
[...]
POINT_DATA 469
SCALARS Radius double 1
LOOKUP_TABLE default
2.00000000e-03
2.00000000e-03
2.00000000e-03
2.00000000e-03
2.00000000e-03
2.00000000e-03
2.00000000e-03
2.00000000e-03
2.00000000e-03
2.00000000e-03
2.00000000e-03
2.00000000e-03
2.00000000e-03
2.00000000e-03
2.00000000e-03
2.00000000e-03
2.00000000e-03
2.00000000e-03
2.00000000e-03
2.00000000e-03
2.00000000e-03
2.00000000e-03
2.00000000e-03
2.00000000e-03
2.00000000e-03
2.00000000e-03
2.00000000e-03
2.00000000e-03
2.00000000e-03
2.00000000e-03
2.00000000e-03
2.00000000e-03
2.00000000e-03
2.00000000e-03
2.00000000e-03
2.00000000e-03
2.00000000e-03
2.00000000e-03
2.00000000e-03
2.00000000e-03
2.00000000e-03
2.00000000e-03
2.00000000e-03
2.00000000e-03
2.00000000e-03
2.00000000e-03
2.00000000e-03
2.00000000e-03
2.00000000e-03
2.00000000e-03
2.00000000e-03
2.00000000e-03
2.00000000e-03
2.00000000e-03
2.00000000e-03
2.00000000e-03
2.00000000e-03
2.00000000e-03
2.00000000e-03
2.00000000e-03
2.00000000e-03
2.00000000e-03
2.00000000e-03
2.00000000e-03
2.00000000e-03
2.00000000e-03
2.00000000e-03
2.00000000e-03
2.00000000e-03
2.00000000e-03
2.00000000e-03
2.00000000e-03
2.00000000e-03
2.00000000e-03
2.00000000e-03
2.00000000e-03
2.00000000e-03
2.00000000e-03
2.00000000e-03
2.00000000e-03
2.00000000e-03
2.00000000e-03
2.00000000e-03
2.00000000e-03
2.00000000e-03
2.00000000e-03
2.00000000e-03
2.00000000e-03
2.00000000e-03
2.00000000e-03
2.00000000e-03
2.00000000e-03
2.00000000e-03
2.00000000e-03
2.00000000e-03
2.00000000e-03
2.00000000e-03
2.00000000e-03
2.00000000e-03
2.00000000e-03
2.00000000e-03
2.00000000e-03
2.00000000e-03
2.00000000e-03
2.00000000e-03
2.00000000e-03
2.00000000e-03
2.00000000e-03
2.00000000e-03
2.00000000e-03
2.00000000e-03
2.00000000e-03
2.00000000e-03
2.00000000e-03
2.00000000e-03
2.00000000e-03
2.00000000e-03
2.00000000e-03
2.00000000e-03
2.00000000e-03
2.00000000e-03
2.00000000e-03
2.00000000e-03
2.00000000e-03
2.00000000e-03
2.00000000e-03
2.00000000e-03
2.00000000e-03
2.00000000e-03
2.00000000e-03
2.00000000e-03
2.00000000e-03
2.00000000e-03
2.00000000e-03
2.00000000e-03
2.00000000e-03
2.00000000e-03
2.00000000e-03
2.00000000e-03
2.00000000e-03
2.00000000e-03
2.00000000e-03
2.00000000e-03
2.00000000e-03
2.00000000e-03
2.00000000e-03
2.00000000e-03
2.00000000e-03
2.00000000e-03
2.00000000e-03
2.00000000e-03
2.00000000e-03
2.00000000e-03
2.00000000e-03
2.00000000e-03
2.00000000e-03
2.00000000e-03
2.00000000e-03
2.00000000e-03
2.00000000e-03
2.00000000e-03
2.00000000e-03
2.00000000e-03
2.00000000e-03
2.00000000e-03
2.00000000e-03
2.00000000e-03
2.00000000e-03
2.00000000e-03
2.00000000e-03
2.00000000e-03
2.00000000e-03
2.00000000e-03
2.00000000e-03
2.00000000e-03
2.00000000e-03
2.00000000e-03
2.00000000e-03
2.00000000e-03
2.00000000e-03
2.00000000e-03
2.00000000e-03
2.00000000e-03
2.00000000e-03
2.00000000e-03
2.00000000e-03
2.00000000e-03
2.00000000e-03
2.00000000e-03
2.00000000e-03
2.00000000e-03
2.00000000e-03
2.00000000e-03
2.00000000e-03
2.00000000e-03
2.00000000e-03
2.00000000e-03
2.00000000e-03
2.00000000e-03
2.00000000e-03
2.00000000e-03
2.00000000e-03
2.00000000e-03
2.00000000e-03
2.00000000e-03
2.00000000e-03
2.00000000e-03
2.00000000e-03
2.00000000e-03
2.00000000e-03
2.00000000e-03
2.00000000e-03
2.00000000e-03
2.00000000e-03
2.00000000e-03
2.00000000e-03
2.00000000e-03
2.00000000e-03
2.00000000e-03
2.00000000e-03
2.00000000e-03
2.00000000e-03
2.00000000e-03
2.00000000e-03
2.00000000e-03
2.00000000e-03
2.00000000e-03
2.00000000e-03
2.00000000e-03
2.00000000e-03
2.00000000e-03
2.00000000e-03
2.00000000e-03
2.00000000e-03
2.00000000e-03
2.00000000e-03
2.00000000e-03
2.00000000e-03
2.00000000e-03
2.00000000e-03
2.00000000e-03
2.00000000e-03
2.00000000e-03
2.00000000e-03
2.00000000e-03
2.00000000e-03
2.00000000e-03
2.00000000e-03
2.00000000e-03
2.00000000e-03
2.00000000e-03
2.00000000e-03
2.00000000e-03
2.00000000e-03
2.00000000e-03
2.00000000e-03
2.00000000e-03
2.00000000e-03
2.00000000e-03
2.00000000e-03
2.00000000e-03
2.00000000e-03
2.00000000e-03
2.00000000e-03
2.00000000e-03
2.00000000e-03
2.00000000e-03
2.00000000e-03
2.00000000e-03
2.00000000e-03
2.00000000e-03
2.00000000e-03
2.00000000e-03
2.00000000e-03
2.00000000e-03
2.00000000e-03
2.00000000e-03
2.00000000e-03
2.00000000e-03
2.00000000e-03
2.00000000e-03
2.00000000e-03
2.00000000e-03
2.00000000e-03
2.00000000e-03
2.00000000e-03
2.00000000e-03
2.00000000e-03
2.00000000e-03
2.00000000e-03
2.00000000e-03
2.00000000e-03
2.00000000e-03
2.00000000e-03
2.00000000e-03
2.00000000e-03
2.00000000e-03
2.00000000e-03
2.00000000e-03
2.00000000e-03
2.00000000e-03
2.00000000e-03
2.00000000e-03
2.00000000e-03
2.00000000e-03
2.00000000e-03
2.00000000e-03
2.00000000e-03
2.00000000e-03
2.00000000e-03
2.00000000e-03
2.00000000e-03
2.00000000e-03
2.00000000e-03
2.00000000e-03
2.00000000e-03
2.00000000e-03
2.00000000e-03
2.00000000e-03
2.00000000e-03
2.00000000e-03
2.00000000e-03
2.00000000e-03
2.00000000e-03
2.00000000e-03
2.00000000e-03
2.00000000e-03
2.00000000e-03
2.00000000e-03
2.00000000e-03
2.00000000e-03
2.00000000e-03
2.00000000e-03
2.00000000e-03
2.00000000e-03
2.00000000e-03
2.00000000e-03
2.00000000e-03
2.00000000e-03
2.00000000e-03
2.00000000e-03
2.00000000e-03
2.00000000e-03
2.00000000e-03
2.00000000e-03
2.00000000e-03
2.00000000e-03
2.00000000e-03
2.00000000e-03
2.00000000e-03
2.00000000e-03
2.00000000e-03
2.00000000e-03
2.00000000e-03
2.00000000e-03
2.00000000e-03
2.00000000e-03
2.00000000e-03
2.00000000e-03
2.00000000e-03
2.00000000e-03
2.00000000e-03
2.00000000e-03
2.00000000e-03
2.00000000e-03
2.00000000e-03
2.00000000e-03
2.00000000e-03
2.00000000e-03
2.00000000e-03
2.00000000e-03
2.00000000e-03
2.00000000e-03
2.00000000e-03
2.00000000e-03
2.00000000e-03
2.00000000e-03
2.00000000e-03
2.00000000e-03
2.00000000e-03
2.00000000e-03
2.00000000e-03
2.00000000e-03
2.00000000e-03
2.00000000e-03
2.00000000e-03
2.00000000e-03
2.00000000e-03
2.00000000e-03
2.00000000e-03
2.00000000e-03
2.00000000e-03
2.00000000e-03
2.00000000e-03
2.00000000e-03
2.00000000e-03
2.00000000e-03
2.00000000e-03
2.00000000e-03
2.00000000e-03
2.00000000e-03
2.00000000e-03
2.00000000e-03
2.00000000e-03
2.00000000e-03
2.00000000e-03
2.00000000e-03
2.00000000e-03
2.00000000e-03
2.00000000e-03
2.00000000e-03
2.00000000e-03
2.00000000e-03
2.00000000e-03
2.00000000e-03
2.00000000e-03
2.00000000e-03
2.00000000e-03
2.00000000e-03
2.00000000e-03
2.00000000e-03
2.00000000e-03
2.00000000e-03
2.00000000e-03
2.00000000e-03
2.00000000e-03
2.00000000e-03
2.00000000e-03
2.00000000e-03
2.00000000e-03
2.00000000e-03
2.00000000e-03
2.00000000e-03
2.00000000e-03
2.00000000e-03
2.00000000e-03
2.00000000e-03
2.00000000e-03
2.00000000e-03
2.00000000e-03
2.00000000e-03
2.00000000e-03
2.00000000e-03
2.00000000e-03
2.00000000e-03
2.00000000e-03
2.00000000e-03
2.00000000e-03
2.00000000e-03
2.00000000e-03
2.00000000e-03
2.00000000e-03
2.00000000e-03
2.00000000e-03
2.00000000e-03
2.00000000e-03
2.00000000e-03
2.00000000e-03
2.00000000e-03
2.00000000e-03
2.00000000e-03
2.00000000e-03
2.00000000e-03
2.00000000e-03
2.00000000e-03
2.00000000e-03
2.00000000e-03
2.00000000e-03
2.00000000e-03
