# vtk DataFile Version 2.0
Particle data
ASCII
DATASET POLYDATA
POINTS 469 double
2.44455000e-02	-2.65526000e-02	8.81643000e-03
1.36946000e-02	-2.99763000e-02	1.31799000e-02
4.83285000e-03	-2.58778000e-02	3.53680000e-03
3.75132000e-02	1.25307000e-02	1.80999000e-02
1.01270000e-02	-2.69447000e-02	2.54516000e-03
2.92417000e-02	-2.72598000e-02	2.49807000e-03
2.15239000e-02	-2.58144000e-02	1.14459000e-02
2.65340000e-02	-4.96221000e-03	1.72378000e-02
5.60725000e-03	-3.56898000e-02	1.81001000e-02
1.68363000e-02	6.27264000e-03	1.35359000e-02
3.30645000e-02	-2.24798000e-02	1.79485000e-02
1.59575000e-02	-2.75169000e-02	1.81020000e-02
-7.90448000e-03	-3.91540000e-02	1.18094000e-02
8.13611000e-03	-2.34124000e-02	2.00107000e-03
3.09169000e-02	-2.52653000e-02	1.44646000e-02
2.92134000e-02	9.36892000e-03	1.24413000e-02
3.57507000e-02	6.42516000e-03	1.42807000e-02
1.19021000e-02	-3.44574000e-02	1.99917000e-03
3.09506000e-02	-3.80767000e-03	1.36332000e-02
3.30741000e-02	-1.88952000e-02	1.10989000e-02
3.31827000e-02	-1.45612000e-02	2.00094000e-03
3.63234000e-05	-3.70316000e-02	1.81001000e-02
3.19259000e-02	1.28243000e-02	1.14510000e-02
1.73215000e-02	-1.10176000e-02	1.99995000e-03
7.82339000e-03	-1.71577000e-02	2.00206000e-03
2.85709000e-02	1.43069000e-02	1.49416000e-02
3.91137000e-02	-8.06388000e-03	1.39599000e-02
7.23645000e-03	-3.58035000e-02	1.35357000e-02
3.95743000e-02	5.56335000e-03	1.58020000e-02
1.79867000e-02	-1.64905000e-02	1.42897000e-02
7.16874000e-03	-3.29642000e-02	1.07197000e-02
1.70865000e-02	-3.61462000e-02	2.03042000e-03
1.34580000e-02	-3.35618000e-02	5.57216000e-03
7.18762000e-03	-2.05938000e-02	1.80921000e-02
1.11300000e-02	-1.22046000e-02	9.10006000e-03
2.39867000e-03	-3.23182000e-02	1.20521000e-02
2.97594000e-02	-2.65748000e-02	6.47191000e-03
3.64615000e-02	-3.03800000e-03	9.54871000e-03
1.76962000e-02	-2.68404000e-02	1.09083000e-02
1.39977000e-02	-1.57709000e-02	2.88392000e-03
3.58352000e-02	-6.55571000e-03	7.71480000e-03
1.57336000e-02	-3.57790000e-02	1.52728000e-02
-3.59093000e-03	-2.22150000e-02	2.33531000e-03
2.00689000e-02	-2.07913000e-02	1.41233000e-02
3.11372000e-02	1.12725000e-02	1.53949000e-02
3.37613000e-02	-1.35860000e-02	1.12034000e-02
2.65869000e-02	-1.56915000e-02	1.44545000e-02
2.39443000e-02	-1.57620000e-02	5.97100000e-03
2.19434000e-02	-8.30744000e-03	1.21399000e-02
2.02300000e-02	-2.11857000e-02	1.81004000e-02
1.78214000e-02	-1.65432000e-02	1.99969000e-03
1.78707000e-02	-1.37179000e-02	4.89941000e-03
3.47202000e-02	8.93968000e-03	1.72157000e-02
2.60528000e-02	-3.76677000e-03	7.47693000e-03
2.99148000e-02	1.80254000e-02	5.11084000e-03
3.95679000e-02	1.45711000e-03	1.41903000e-02
2.16021000e-02	7.26810000e-03	9.95466000e-03
3.01774000e-02	-1.41090000e-02	1.53216000e-02
2.30818000e-02	1.14475000e-02	1.36251000e-02
1.49295000e-02	2.82924000e-03	1.61437000e-02
-2.13315000e-03	-1.88496000e-02	1.80739000e-02
1.73194000e-02	-9.56925000e-03	1.05412000e-02
1.83711000e-02	-1.76442000e-02	1.81001000e-02
3.61191000e-02	4.53629000e-03	1.07748000e-02
1.03823000e-03	-3.31020000e-02	5.30866000e-03
3.62386000e-02	-1.67888000e-02	6.51610000e-03
4.82119000e-04	-1.58228000e-02	9.90151000e-03
1.27382000e-02	-2.99311000e-02	1.79698000e-02
2.68826000e-02	1.54048000e-02	1.12664000e-02
-6.38390000e-03	-3.14964000e-02	1.03137000e-02
3.96182000e-02	-5.13937000e-03	6.30159000e-03
8.93689000e-04	-3.79007000e-02	1.99929000e-03
2.69200000e-02	-2.14337000e-02	1.81002000e-02
3.53986000e-02	-1.04528000e-02	8.50177000e-03
2.05057000e-02	-3.38064000e-02	5.81176000e-03
3.88094000e-02	-9.46562000e-03	1.81000000e-02
3.22876000e-02	-3.38289000e-03	6.39004000e-03
1.88280000e-02	-2.32253000e-02	9.63196000e-03
-1.09067000e-02	-3.68449000e-02	1.80564000e-02
2.24788000e-02	-2.83868000e-03	1.80952000e-02
3.02468000e-02	-1.26171000e-02	5.44689000e-03
1.19982000e-02	-1.60376000e-02	8.36240000e-03
1.23859000e-02	-3.28810000e-04	2.00426000e-03
8.10583000e-03	-1.42306000e-02	1.80635000e-02
1.17618000e-02	-5.50286000e-03	3.18478000e-03
3.59514000e-02	-1.74953000e-02	2.00092000e-03
1.87701000e-02	-3.22673000e-02	1.48221000e-02
3.40236000e-02	9.81313000e-03	1.30419000e-02
3.54454000e-03	-1.61809000e-02	6.89411000e-03
2.74601000e-02	2.62221000e-03	6.53859000e-03
3.42450000e-02	-1.24598000e-02	5.24037000e-03
2.16808000e-02	-2.23786000e-02	1.99887000e-03
8.96605000e-04	-3.70281000e-02	6.06195000e-03
3.93033000e-02	-7.09509000e-03	9.77597000e-03
5.70714000e-03	-3.00793000e-02	7.97358000e-03
4.89449000e-03	-3.96816000e-02	8.32134000e-03
3.49891000e-02	7.73165000e-03	8.65111000e-03
2.02642000e-02	6.51504000e-03	1.80316000e-02
1.20938000e-02	-1.54543000e-02	1.79479000e-02
1.11009000e-02	-2.08527000e-02	8.65226000e-03
2.44607000e-02	2.53379000e-03	2.62034000e-03
2.63517000e-02	1.25457000e-03	1.01304000e-02
3.44619000e-02	2.42113000e-03	1.41709000e-02
-7.73849000e-03	-3.92415000e-02	1.68840000e-02
2.68385000e-02	1.15765000e-02	1.01019000e-02
2.11221000e-02	-1.42864000e-02	2.09211000e-03
2.85145000e-02	8.67118000e-03	1.99997000e-03
1.97816000e-02	-8.18223000e-03	3.38095000e-03
6.20977000e-03	-7.02127000e-03	2.03185000e-03
1.31296000e-02	-2.57962000e-02	4.93061000e-03
2.90025000e-02	5.97332000e-03	4.91262000e-03
3.50588000e-02	-1.09121000e-02	1.80999000e-02
3.00053000e-02	-1.55502000e-02	1.14181000e-02
3.40062000e-02	7.59058000e-03	2.01159000e-03
4.91558000e-03	-1.65737000e-02	1.50088000e-02
2.33112000e-02	7.54073000e-03	2.00708000e-03
3.99371000e-02	-1.13788000e-03	1.01003000e-02
2.00940000e-02	8.48848000e-04	1.04897000e-02
8.87863000e-03	-2.93540000e-02	1.09092000e-02
1.72213000e-02	-3.60543000e-02	6.20679000e-03
2.59565000e-02	-1.97805000e-02	1.99943000e-03
1.28736000e-02	-1.92076000e-02	1.68094000e-02
3.51429000e-02	-1.90926000e-02	1.74962000e-02
-8.91165000e-03	-3.22659000e-02	7.30017000e-03
-3.92478000e-03	-3.97955000e-02	1.80965000e-02
3.27597000e-02	-1.77167000e-02	4.50853000e-03
2.71119000e-02	-2.93444000e-02	5.32335000e-03
1.62370000e-02	-2.75900000e-02	7.26211000e-03
3.63451000e-02	9.29781000e-04	9.06095000e-03
3.19111000e-02	-3.16847000e-04	2.16808000e-03
3.61971000e-02	-3.20450000e-03	5.56136000e-03
-1.36799000e-03	-3.99687000e-02	4.56848000e-03
3.10792000e-02	-1.13775000e-02	1.81004000e-02
1.29481000e-02	-3.38681000e-02	1.26415000e-02
1.44526000e-02	-1.89158000e-02	9.65771000e-03
8.09945000e-03	-7.82220000e-03	7.25971000e-03
7.08618000e-03	-3.34594000e-02	3.98559000e-03
2.52886000e-02	-2.68436000e-02	2.05383000e-03
2.31419000e-02	4.62918000e-03	1.34185000e-02
3.62685000e-02	-3.36748000e-03	1.75597000e-02
4.43610000e-03	-1.26068000e-02	1.53159000e-02
2.96941000e-02	-1.82948000e-02	1.99973000e-03
3.11414000e-02	-1.78918000e-02	1.44541000e-02
3.98713000e-02	-1.15790000e-03	6.01528000e-03
2.51034000e-02	-2.26422000e-02	8.29541000e-03
3.40471000e-02	-2.09675000e-02	2.56601000e-03
3.45442000e-02	1.69811000e-02	1.03171000e-02
3.18106000e-02	-2.42348000e-02	1.99989000e-03
2.19554000e-02	-8.86647000e-03	6.67266000e-03
1.34208000e-02	-6.29603000e-03	1.80915000e-02
2.74379000e-02	-1.95203000e-02	1.09924000e-02
2.54091000e-02	8.11295000e-03	1.80986000e-02
2.51237000e-02	-3.10673000e-02	1.15136000e-02
3.80756000e-02	-1.18012000e-02	1.49368000e-02
2.11436000e-02	-1.60430000e-02	1.16724000e-02
2.54713000e-02	-1.10815000e-02	1.02891000e-02
2.40032000e-02	-3.18806000e-02	5.57352000e-03
9.63291000e-03	-2.38636000e-02	5.68376000e-03
-1.10558000e-02	-3.84066000e-02	1.42932000e-02
2.51507000e-02	-1.58628000e-02	2.02684000e-03
6.17624000e-03	-3.62648000e-02	6.68632000e-03
2.54648000e-02	-3.08384000e-02	1.99911000e-03
1.01384000e-02	2.29307000e-03	1.07870000e-02
3.43883000e-02	1.67676000e-03	1.81001000e-02
1.60717000e-02	-2.56300000e-03	2.01952000e-03
1.42492000e-02	-2.60342000e-02	1.27984000e-02
1.94277000e-02	-1.62805000e-02	7.54901000e-03
2.93470000e-02	-2.12223000e-02	4.70202000e-03
3.88193000e-02	8.75012000e-03	1.81003000e-02
2.85867000e-02	5.86724000e-03	8.89941000e-03
2.77862000e-02	-2.87152000e-02	9.21499000e-03
2.30841000e-02	9.45456000e-03	6.90474000e-03
2.49276000e-02	-1.49997000e-02	1.08814000e-02
1.72220000e-02	-2.85985000e-02	1.44671000e-02
2.05879000e-02	-2.21584000e-02	5.83934000e-03
2.08462000e-02	-2.96366000e-02	1.25643000e-02
1.11775000e-02	-3.83898000e-02	2.01120000e-03
-5.32015000e-03	-3.60204000e-02	1.73586000e-02
2.21821000e-02	-3.32581000e-02	1.81000000e-02
2.32093000e-02	-4.22928000e-03	4.56127000e-03
3.81407000e-02	1.04630000e-02	1.45502000e-02
9.54454000e-03	-1.42799000e-02	5.43307000e-03
1.58313000e-02	-2.35192000e-02	1.80769000e-02
3.61824000e-02	1.38552000e-02	7.56548000e-03
9.30828000e-03	-2.00369000e-02	1.39394000e-02
2.25156000e-02	-3.29968000e-02	9.17400000e-03
2.98919000e-02	-2.15454000e-02	1.34161000e-02
1.28571000e-02	-3.78290000e-02	1.31834000e-02
2.46283000e-02	-1.43115000e-02	1.78389000e-02
2.17113000e-02	-3.35806000e-02	2.00004000e-03
3.16189000e-02	1.41790000e-02	1.81001000e-02
1.71489000e-02	2.18218000e-03	1.28802000e-02
3.17032000e-02	1.63242000e-02	1.33745000e-02
3.94067000e-02	6.01682000e-03	7.86200000e-03
1.46030000e-02	-1.19678000e-02	6.41076000e-03
2.88554000e-02	-1.79452000e-03	1.80971000e-02
1.71195000e-02	-1.75094000e-03	1.21560000e-02
2.14711000e-02	-1.21131000e-02	1.10028000e-02
2.01729000e-02	-1.94672000e-02	9.84456000e-03
2.65710000e-02	1.96528000e-02	1.80999000e-02
3.84321000e-02	-1.07709000e-02	1.10891000e-02
3.26560000e-02	-1.51785000e-02	7.70511000e-03
3.25072000e-02	2.88806000e-03	1.02898000e-02
-3.50787000e-03	-3.98214000e-02	1.17799000e-02
3.58608000e-02	1.59144000e-02	1.48438000e-02
2.81194000e-02	-1.49031000e-02	7.94619000e-03
2.65274000e-02	-1.16926000e-02	1.44209000e-02
3.95850000e-02	-5.60178000e-03	1.74150000e-02
4.82771000e-03	-3.30461000e-02	1.51455000e-02
3.27714000e-02	-7.25734000e-03	1.45169000e-02
6.50798000e-04	-1.62088000e-02	1.60716000e-02
2.86985000e-02	1.26667000e-02	1.99983000e-03
1.84025000e-02	4.67402000e-03	9.12365000e-03
2.64464000e-02	2.03002000e-03	1.40563000e-02
1.02106000e-02	-3.23854000e-02	1.51516000e-02
1.32369000e-03	-2.83266000e-02	5.48082000e-03
[...]
POINT_DATA 469
SCALARS Radius double 1
LOOKUP_TABLE default
2.00000000e-03
2.00000000e-03
2.00000000e-03
2.00000000e-03
2.00000000e-03
2.00000000e-03
2.00000000e-03
2.00000000e-03
2.00000000e-03
2.00000000e-03
2.00000000e-03
2.00000000e-03
2.00000000e-03
2.00000000e-03
2.00000000e-03
2.00000000e-03
2.00000000e-03
2.00000000e-03
2.00000000e-03
2.00000000e-03
2.00000000e-03
2.00000000e-03
2.00000000e-03
2.00000000e-03
2.00000000e-03
2.00000000e-03
2.00000000e-03
2.00000000e-03
2.00000000e-03
2.00000000e-03
2.00000000e-03
2.00000000e-03
2.00000000e-03
2.00000000e-03
2.00000000e-03
2.00000000e-03
2.00000000e-03
2.00000000e-03
2.00000000e-03
2.00000000e-03
2.00000000e-03
2.00000000e-03
2.00000000e-03
2.00000000e-03
2.00000000e-03
2.00000000e-03
2.00000000e-03
2.00000000e-03
2.00000000e-03
2.00000000e-03
2.00000000e-03
2.00000000e-03
2.00000000e-03
2.00000000e-03
2.00000000e-03
2.00000000e-03
2.00000000e-03
2.00000000e-03
2.00000000e-03
2.00000000e-03
2.00000000e-03
2.00000000e-03
2.00000000e-03
2.00000000e-03
2.00000000e-03
2.00000000e-03
2.00000000e-03
2.00000000e-03
2.00000000e-03
2.00000000e-03
2.00000000e-03
2.00000000e-03
2.00000000e-03
2.00000000e-03
2.00000000e-03
2.00000000e-03
2.00000000e-03
2.00000000e-03
2.00000000e-03
2.00000000e-03
2.00000000e-03
2.00000000e-03
2.00000000e-03
2.00000000e-03
2.00000000e-03
2.00000000e-03
2.00000000e-03
2.00000000e-03
2.00000000e-03
2.00000000e-03
2.00000000e-03
2.00000000e-03
2.00000000e-03
2.00000000e-03
2.00000000e-03
2.00000000e-03
2.00000000e-03
2.00000000e-03
2.00000000e-03
2.00000000e-03
2.00000000e-03
2.00000000e-03
2.00000000e-03
2.00000000e-03
2.00000000e-03
2.00000000e-03
2.00000000e-03
2.00000000e-03
2.00000000e-03
2.00000000e-03
2.00000000e-03
2.00000000e-03
2.00000000e-03
2.00000000e-03
2.00000000e-03
2.00000000e-03
2.00000000e-03
2.00000000e-03
2.00000000e-03
2.00000000e-03
2.00000000e-03
2.00000000e-03
2.00000000e-03
2.00000000e-03
2.00000000e-03
2.00000000e-03
2.00000000e-03
2.00000000e-03
2.00000000e-03
2.00000000e-03
2.00000000e-03
2.00000000e-03
2.00000000e-03
2.00000000e-03
2.00000000e-03
2.00000000e-03
2.00000000e-03
2.00000000e-03
2.00000000e-03
2.00000000e-03
2.00000000e-03
2.00000000e-03
2.00000000e-03
2.00000000e-03
2.00000000e-03
2.00000000e-03
2.00000000e-03
2.00000000e-03
2.00000000e-03
2.00000000e-03
2.00000000e-03
2.00000000e-03
2.00000000e-03
2.00000000e-03
2.00000000e-03
2.00000000e-03
2.00000000e-03
2.00000000e-03
2.00000000e-03
2.00000000e-03
2.00000000e-03
2.00000000e-03
2.00000000e-03
2.00000000e-03
2.00000000e-03
2.00000000e-03
2.00000000e-03
2.00000000e-03
2.00000000e-03
2.00000000e-03
2.00000000e-03
2.00000000e-03
2.00000000e-03
2.00000000e-03
2.00000000e-03
2.00000000e-03
2.00000000e-03
2.00000000e-03
2.00000000e-03
2.00000000e-03
2.00000000e-03
2.00000000e-03
2.00000000e-03
2.00000000e-03
2.00000000e-03
2.00000000e-03
2.00000000e-03
2.00000000e-03
2.00000000e-03
2.00000000e-03
2.00000000e-03
2.00000000e-03
2.00000000e-03
2.00000000e-03
2.00000000e-03
2.00000000e-03
2.00000000e-03
2.00000000e-03
2.00000000e-03
2.00000000e-03
2.00000000e-03
2.00000000e-03
2.00000000e-03
2.00000000e-03
2.00000000e-03
2.00000000e-03
2.00000000e-03
2.00000000e-03
2.00000000e-03
2.00000000e-03
2.00000000e-03
2.00000000e-03
2.00000000e-03
2.00000000e-03
2.00000000e-03
2.00000000e-03
2.00000000e-03
2.00000000e-03
2.00000000e-03
2.00000000e-03
2.00000000e-03
2.00000000e-03
2.00000000e-03
2.00000000e-03
2.00000000e-03
2.00000000e-03
2.00000000e-03
2.00000000e-03
2.00000000e-03
2.00000000e-03
2.00000000e-03
2.00000000e-03
2.00000000e-03
2.00000000e-03
2.00000000e-03
2.00000000e-03
2.00000000e-03
2.00000000e-03
2.00000000e-03
2.00000000e-03
2.00000000e-03
2.00000000e-03
2.00000000e-03
2.00000000e-03
2.00000000e-03
2.00000000e-03
2.00000000e-03
2.00000000e-03
2.00000000e-03
2.00000000e-03
2.00000000e-03
2.00000000e-03
2.00000000e-03
2.00000000e-03
2.00000000e-03
2.00000000e-03
2.00000000e-03
2.00000000e-03
2.00000000e-03
2.00000000e-03
2.00000000e-03
2.00000000e-03
2.00000000e-03
2.00000000e-03
2.00000000e-03
2.00000000e-03
2.00000000e-03
2.00000000e-03
2.00000000e-03
2.00000000e-03
2.00000000e-03
2.00000000e-03
2.00000000e-03
2.00000000e-03
2.00000000e-03
2.00000000e-03
2.00000000e-03
2.00000000e-03
2.00000000e-03
2.00000000e-03
2.00000000e-03
2.00000000e-03
2.00000000e-03
2.00000000e-03
2.00000000e-03
2.00000000e-03
2.00000000e-03
2.00000000e-03
2.00000000e-03
2.00000000e-03
2.00000000e-03
2.00000000e-03
2.00000000e-03
2.00000000e-03
2.00000000e-03
2.00000000e-03
2.00000000e-03
2.00000000e-03
2.00000000e-03
2.00000000e-03
2.00000000e-03
2.00000000e-03
2.00000000e-03
2.00000000e-03
2.00000000e-03
2.00000000e-03
2.00000000e-03
2.00000000e-03
2.00000000e-03
2.00000000e-03
2.00000000e-03
2.00000000e-03
2.00000000e-03
2.00000000e-03
2.00000000e-03
2.00000000e-03
2.00000000e-03
2.00000000e-03
2.00000000e-03
2.00000000e-03
2.00000000e-03
2.00000000e-03
2.00000000e-03
2.00000000e-03
2.00000000e-03
2.00000000e-03
2.00000000e-03
2.00000000e-03
2.00000000e-03
2.00000000e-03
2.00000000e-03
2.00000000e-03
2.00000000e-03
2.00000000e-03
2.00000000e-03
2.00000000e-03
2.00000000e-03
2.00000000e-03
2.00000000e-03
2.00000000e-03
2.00000000e-03
2.00000000e-03
2.00000000e-03
2.00000000e-03
2.00000000e-03
2.00000000e-03
2.00000000e-03
2.00000000e-03
2.00000000e-03
2.00000000e-03
2.00000000e-03
2.00000000e-03
2.00000000e-03
2.00000000e-03
2.00000000e-03
2.00000000e-03
2.00000000e-03
2.00000000e-03
2.00000000e-03
2.00000000e-03
2.00000000e-03
2.00000000e-03
2.00000000e-03
2.00000000e-03
2.00000000e-03
2.00000000e-03
2.00000000e-03
2.00000000e-03
2.00000000e-03
2.00000000e-03
2.00000000e-03
2.00000000e-03
2.00000000e-03
2.00000000e-03
2.00000000e-03
2.00000000e-03
2.00000000e-03
2.00000000e-03
2.00000000e-03
2.00000000e-03
2.00000000e-03
2.00000000e-03
2.00000000e-03
2.00000000e-03
2.00000000e-03
2.00000000e-03
2.00000000e-03
2.00000000e-03
2.00000000e-03
2.00000000e-03
2.00000000e-03
2.00000000e-03
2.00000000e-03
2.00000000e-03
2.00000000e-03
2.00000000e-03
2.00000000e-03
2.00000000e-03
2.00000000e-03
2.00000000e-03
2.00000000e-03
2.00000000e-03
2.00000000e-03
2.00000000e-03
2.00000000e-03
2.00000000e-03
2.00000000e-03
2.00000000e-03
2.00000000e-03
2.00000000e-03
2.00000000e-03
2.00000000e-03
2.00000000e-03
2.00000000e-03
2.00000000e-03
2.00000000e-03
2.00000000e-03
2.00000000e-03
2.00000000e-03
2.00000000e-03
2.00000000e-03
2.00000000e-03
2.00000000e-03
2.00000000e-03
2.00000000e-03
2.00000000e-03
2.00000000e-03
2.00000000e-03
2.00000000e-03
2.00000000e-03
2.00000000e-03
2.00000000e-03
2.00000000e-03
2.00000000e-03
2.00000000e-03
2.00000000e-03
2.00000000e-03
2.00000000e-03
2.00000000e-03
2.00000000e-03
2.00000000e-03
2.00000000e-03
2.00000000e-03
2.00000000e-03
2.00000000e-03
2.00000000e-03
2.00000000e-03
2.00000000e-03
2.00000000e-03
2.00000000e-03
2.00000000e-03
2.00000000e-03
2.00000000e-03
2.00000000e-03
2.00000000e-03
2.00000000e-03
2.00000000e-03
2.00000000e-03
2.00000000e-03
2.00000000e-03
2.00000000e-03
2.00000000e-03
2.00000000e-03
2.00000000e-03
2.00000000e-03
2.00000000e-03
2.00000000e-03
2.00000000e-03
2.00000000e-03
