# vtk DataFile Version 2.0
Particle data
ASCII
DATASET POLYDATA
POINTS 469 double
3.37193000e-02	-1.27848000e-02	8.85756000e-03
2.52001000e-02	-2.09313000e-02	1.35960000e-02
1.46375000e-02	-2.74850000e-02	5.71923000e-03
2.56015000e-02	1.69018000e-02	1.71222000e-02
2.05827000e-02	-1.98559000e-02	2.52803000e-03
3.83163000e-02	-1.14032000e-02	2.50779000e-03
3.06193000e-02	-1.35259000e-02	1.13624000e-02
2.40672000e-02	1.73685000e-03	1.78655000e-02
2.09196000e-02	-2.98655000e-02	1.81003000e-02
-1.59263000e-02	-3.30228000e-02	1.70408000e-02
3.95922000e-02	-5.56062000e-03	1.79640000e-02
2.65211000e-02	-1.75512000e-02	1.81003000e-02
1.00203000e-02	-3.87128000e-02	1.19394000e-02
1.48041000e-02	-2.44691000e-02	2.98560000e-03
3.89381000e-02	-8.88320000e-03	1.44644000e-02
1.36090000e-02	-7.03020000e-03	1.46196000e-02
2.64772000e-02	1.31173000e-02	1.43042000e-02
2.54987000e-02	-2.57699000e-02	2.00303000e-03
2.77289000e-02	5.51834000e-03	1.28105000e-02
3.80010000e-02	-2.46289000e-03	1.11196000e-02
3.61720000e-02	1.56289000e-03	1.99920000e-03
1.62549000e-02	-3.33072000e-02	1.81008000e-02
-1.31066000e-03	-1.83057000e-02	5.33543000e-03
1.53923000e-02	-1.66189000e-02	1.99971000e-03
1.02818000e-02	-2.53745000e-02	2.13034000e-03
-6.36646000e-03	-2.97069000e-02	9.71691000e-03
3.86074000e-02	9.66565000e-03	1.38313000e-02
2.19534000e-02	-2.91184000e-02	1.37282000e-02
3.10899000e-02	1.93640000e-02	1.44822000e-02
2.23595000e-02	-9.56916000e-03	1.42788000e-02
2.06549000e-02	-2.75748000e-02	1.01516000e-02
3.07146000e-02	-2.56092000e-02	1.99993000e-03
2.65197000e-02	-2.44125000e-02	5.62334000e-03
7.22225000e-03	-2.85745000e-02	1.80755000e-02
-4.71377000e-03	-3.86740000e-02	1.12603000e-02
1.60748000e-02	-2.93770000e-02	1.15111000e-02
3.84942000e-02	-1.04646000e-02	6.67122000e-03
3.33794000e-02	1.25982000e-02	1.04587000e-02
2.78117000e-02	-1.64057000e-02	1.07567000e-02
1.52985000e-02	-2.06188000e-02	2.00681000e-03
3.45225000e-02	9.60698000e-03	8.06265000e-03
3.04716000e-02	-2.52835000e-02	1.51471000e-02
-7.02199000e-03	-3.93620000e-02	2.01093000e-03
2.69713000e-02	-1.00337000e-02	1.43397000e-02
4.54938000e-03	-1.54852000e-02	1.61726000e-02
3.61944000e-02	2.49576000e-03	1.13264000e-02
3.07344000e-02	-2.44955000e-03	1.45031000e-02
2.68272000e-02	-4.91240000e-03	6.37752000e-03
1.69171000e-02	-1.36198000e-02	1.42488000e-02
2.61353000e-02	-1.18172000e-02	1.80868000e-02
2.22254000e-02	-8.26475000e-03	2.04515000e-03
1.93896000e-02	-1.08048000e-02	5.89627000e-03
2.52187000e-02	1.30422000e-02	1.81002000e-02
2.35306000e-02	4.99634000e-04	5.98476000e-03
-6.13467000e-06	-2.19461000e-02	1.32573000e-02
3.43103000e-02	1.70507000e-02	1.39110000e-02
-1.64868000e-02	-3.63020000e-02	7.76561000e-03
3.32754000e-02	5.65898000e-04	1.51717000e-02
-1.06554000e-03	-2.99442000e-02	1.34370000e-02
-4.81960000e-03	-2.86275000e-02	1.62377000e-02
1.22096000e-04	-3.66271000e-02	1.81003000e-02
6.15523000e-03	-2.88446000e-02	9.97375000e-03
1.89750000e-02	-1.48990000e-02	1.74315000e-02
2.49276000e-02	1.23248000e-02	1.07029000e-02
1.50834000e-02	-3.13877000e-02	3.96185000e-03
3.99179000e-02	1.11869000e-03	6.10937000e-03
-1.16150000e-02	-3.82504000e-02	2.89658000e-03
2.45174000e-02	-2.12093000e-02	1.81003000e-02
-4.50402000e-03	-3.33066000e-02	6.02038000e-03
6.71547000e-03	-3.93638000e-02	9.78213000e-03
3.77173000e-02	1.26489000e-02	6.18439000e-03
1.76544000e-02	-3.37417000e-02	1.99940000e-03
3.34723000e-02	-7.57643000e-03	1.81001000e-02
3.61833000e-02	6.01481000e-03	8.63757000e-03
3.36199000e-02	-2.14679000e-02	6.03782000e-03
3.90653000e-02	8.55863000e-03	1.80771000e-02
2.86754000e-02	6.46237000e-03	7.41886000e-03
2.69098000e-02	-1.28776000e-02	9.10412000e-03
5.60772000e-03	-3.95967000e-02	1.80926000e-02
8.32140000e-03	-1.74443000e-02	1.65137000e-02
3.25571000e-02	1.25413000e-03	5.72246000e-03
6.67258000e-03	-3.08138000e-02	6.53176000e-03
2.89578000e-03	-3.03083000e-02	1.99972000e-03
2.40790000e-03	-2.72402000e-02	1.81006000e-02
7.47123000e-04	-3.36406000e-02	2.52716000e-03
3.99817000e-02	3.26429000e-04	2.01247000e-03
3.12772000e-02	-2.03231000e-02	1.48688000e-02
1.18410000e-02	-1.01098000e-03	1.14606000e-02
5.20731000e-03	-3.67227000e-02	6.35942000e-03
1.30701000e-02	-7.64847000e-03	8.75532000e-03
3.60430000e-02	3.81787000e-03	5.29925000e-03
2.93300000e-02	-1.02669000e-02	1.99976000e-03
1.81415000e-02	-3.31588000e-02	6.28877000e-03
3.83543000e-02	1.07583000e-02	9.65111000e-03
1.85623000e-02	-2.52341000e-02	7.13712000e-03
2.21534000e-02	-3.32855000e-02	8.37077000e-03
1.77809000e-02	3.98474000e-03	7.26879000e-03
-2.70459000e-05	-2.53531000e-02	1.00892000e-02
1.31675000e-02	-2.35239000e-02	1.80995000e-02
1.49160000e-02	-2.25886000e-02	7.46188000e-03
4.33464000e-03	-2.14018000e-02	7.89458000e-03
3.19809000e-03	-1.80946000e-02	9.86365000e-03
2.63760000e-02	9.15132000e-03	1.37949000e-02
1.02843000e-02	-3.86411000e-02	1.73060000e-02
8.33778000e-06	-2.90810000e-02	8.64606000e-03
2.44548000e-02	-4.94422000e-03	2.00197000e-03
1.70954000e-02	-8.91415000e-03	2.41555000e-03
1.78812000e-02	-7.15837000e-03	6.53433000e-03
-1.27083000e-02	-3.45082000e-02	2.00182000e-03
2.27208000e-02	-1.76399000e-02	5.09016000e-03
1.11742000e-02	-5.99718000e-03	5.58679000e-03
3.61164000e-02	5.85719000e-03	1.81011000e-02
3.32832000e-02	-1.40582000e-03	1.15395000e-02
2.30210000e-02	1.00065000e-02	2.00001000e-03
5.47411000e-03	-3.32862000e-02	1.45969000e-02
-2.65147000e-03	-2.95111000e-02	2.27876000e-03
3.70103000e-02	1.45152000e-02	9.92930000e-03
-9.64153000e-03	-3.22995000e-02	7.77599000e-03
2.06513000e-02	-2.36119000e-02	1.06937000e-02
3.12754000e-02	-2.49201000e-02	6.84499000e-03
3.17616000e-02	-6.50514000e-03	1.99961000e-03
1.48137000e-02	-1.88508000e-02	1.56271000e-02
3.99526000e-02	-1.59983000e-03	1.75398000e-02
2.81565000e-03	-3.98909000e-02	5.87475000e-03
1.40234000e-02	-3.74487000e-02	1.80819000e-02
3.71916000e-02	-1.42052000e-03	4.60277000e-03
3.73119000e-02	-1.40717000e-02	5.41050000e-03
2.68311000e-02	-1.79474000e-02	7.19877000e-03
2.89169000e-02	1.22378000e-02	1.00344000e-02
2.58224000e-02	7.01796000e-03	1.99978000e-03
3.28092000e-02	1.23660000e-02	5.72838000e-03
1.64862000e-02	-3.64399000e-02	4.70967000e-03
3.28667000e-02	3.25942000e-03	1.81001000e-02
2.64014000e-02	-2.46418000e-02	1.27105000e-02
1.84375000e-02	-1.46468000e-02	9.30590000e-03
-5.89606000e-04	-3.98986000e-02	1.33574000e-02
2.11504000e-02	-2.69207000e-02	3.90270000e-03
3.45425000e-02	-1.26341000e-02	2.01991000e-03
9.51694000e-03	-1.94803000e-02	1.27958000e-02
3.34464000e-02	1.30146000e-02	1.77531000e-02
1.08143000e-03	-3.35701000e-02	1.57064000e-02
3.47541000e-02	-3.23244000e-03	1.99983000e-03
3.58058000e-02	-2.44888000e-03	1.44629000e-02
3.50706000e-02	1.56563000e-02	5.97010000e-03
3.22939000e-02	-9.07294000e-03	8.42229000e-03
3.98253000e-02	-3.63206000e-03	2.56034000e-03
1.29349000e-02	1.52647000e-03	8.53112000e-03
3.92695000e-02	-7.55254000e-03	1.99983000e-03
1.59233000e-02	-1.08402000e-02	9.38056000e-03
4.55984000e-03	-2.40576000e-02	1.69893000e-02
3.29071000e-02	-6.04878000e-03	1.09729000e-02
9.92021000e-03	-1.42490000e-02	1.47194000e-02
3.63896000e-02	-1.64930000e-02	1.14301000e-02
3.93044000e-02	5.81646000e-03	1.46656000e-02
2.53338000e-02	-5.73699000e-03	1.12246000e-02
2.57149000e-02	1.37362000e-04	1.06808000e-02
3.56200000e-02	-1.80350000e-02	5.57505000e-03
1.78604000e-02	-1.85860000e-02	5.16823000e-03
6.86186000e-03	-3.93933000e-02	1.42975000e-02
2.84067000e-02	-4.32742000e-03	2.02739000e-03
2.15182000e-02	-2.96685000e-02	6.78640000e-03
3.66313000e-02	-1.60428000e-02	1.99814000e-03
2.00258000e-03	-3.78767000e-02	9.23341000e-03
2.95872000e-02	1.40077000e-02	1.81003000e-02
4.79031000e-03	-2.67858000e-02	2.03157000e-03
2.39126000e-02	-1.72126000e-02	1.28817000e-02
2.27737000e-02	-7.26168000e-03	7.39148000e-03
3.57268000e-02	-5.90437000e-03	4.81178000e-03
2.75133000e-02	2.15105000e-02	1.80525000e-02
9.68473000e-03	-1.26423000e-02	1.10653000e-02
3.76547000e-02	-1.33359000e-02	9.32634000e-03
-5.96272000e-03	-3.37724000e-02	9.99709000e-03
2.82834000e-02	-2.90969000e-03	1.10177000e-02
2.81233000e-02	-1.79005000e-02	1.44524000e-02
2.77888000e-02	-1.12520000e-02	5.55693000e-03
3.18770000e-02	-1.71366000e-02	1.25323000e-02
2.70483000e-02	-2.94558000e-02	1.99881000e-03
1.06285000e-02	-3.47374000e-02	1.81008000e-02
3.46882000e-02	-1.98797000e-02	1.80953000e-02
9.61494000e-03	-1.79652000e-02	5.74564000e-03
2.83521000e-02	1.65550000e-02	1.34878000e-02
3.85970000e-03	-3.32101000e-02	5.00156000e-03
2.35506000e-02	-1.48697000e-02	1.81002000e-02
1.98112000e-02	5.68090000e-03	1.02839000e-02
1.07502000e-02	-2.93088000e-02	1.14141000e-02
3.46182000e-02	-1.98995000e-02	9.57961000e-03
3.61075000e-02	-6.28187000e-03	1.33625000e-02
2.84046000e-02	-2.80737000e-02	1.31610000e-02
2.84316000e-02	-3.74308000e-03	1.80902000e-02
3.45315000e-02	-2.01688000e-02	1.99969000e-03
1.59832000e-02	4.71174000e-04	1.71417000e-02
5.72611000e-03	-2.93533000e-02	1.39174000e-02
-8.14471000e-06	-1.56761000e-02	8.52902000e-03
2.76265000e-02	1.64479000e-02	8.26019000e-03
1.18618000e-02	-2.44839000e-02	5.69510000e-03
2.54640000e-02	5.47728000e-03	1.81001000e-02
9.43369000e-03	-3.28875000e-02	1.02085000e-02
1.93558000e-02	-7.79151000e-03	1.23095000e-02
2.60136000e-02	-8.98185000e-03	8.98768000e-03
-1.74749000e-03	-2.19691000e-02	1.70181000e-02
3.93277000e-02	7.07533000e-03	1.08698000e-02
3.59421000e-02	6.78057000e-04	7.77381000e-03
1.68918000e-02	2.53216000e-04	8.40159000e-03
1.46793000e-02	-3.71635000e-02	1.17045000e-02
1.20541000e-02	2.11277000e-03	1.52850000e-02
3.10200000e-02	-1.74772000e-03	8.25946000e-03
2.74280000e-02	-2.32020000e-04	1.49052000e-02
3.80171000e-02	1.23417000e-02	1.73118000e-02
1.83392000e-02	-2.79700000e-02	1.49983000e-02
3.20265000e-02	7.54398000e-03	1.43090000e-02
-4.56671000e-03	-3.84675000e-02	1.52523000e-02
1.17162000e-02	-2.26571000e-03	1.99972000e-03
-6.54544000e-03	-3.53734000e-02	1.36191000e-02
5.32813000e-03	-1.81939000e-02	1.32548000e-02
2.31772000e-02	-2.48381000e-02	1.50686000e-02
1.32732000e-02	-2.80327000e-02	1.99961000e-03
[...]
POINT_DATA 469
SCALARS Radius double 1
LOOKUP_TABLE default
2.00000000e-03
2.00000000e-03
2.00000000e-03
2.00000000e-03
2.00000000e-03
2.00000000e-03
2.00000000e-03
2.00000000e-03
2.00000000e-03
2.00000000e-03
2.00000000e-03
2.00000000e-03
2.00000000e-03
2.00000000e-03
2.00000000e-03
2.00000000e-03
2.00000000e-03
2.00000000e-03
2.00000000e-03
2.00000000e-03
2.00000000e-03
2.00000000e-03
2.00000000e-03
2.00000000e-03
2.00000000e-03
2.00000000e-03
2.00000000e-03
2.00000000e-03
2.00000000e-03
2.00000000e-03
2.00000000e-03
2.00000000e-03
2.00000000e-03
2.00000000e-03
2.00000000e-03
2.00000000e-03
2.00000000e-03
2.00000000e-03
2.00000000e-03
2.00000000e-03
2.00000000e-03
2.00000000e-03
2.00000000e-03
2.00000000e-03
2.00000000e-03
2.00000000e-03
2.00000000e-03
2.00000000e-03
2.00000000e-03
2.00000000e-03
2.00000000e-03
2.00000000e-03
2.00000000e-03
2.00000000e-03
2.00000000e-03
2.00000000e-03
2.00000000e-03
2.00000000e-03
2.00000000e-03
2.00000000e-03
2.00000000e-03
2.00000000e-03
2.00000000e-03
2.00000000e-03
2.00000000e-03
2.00000000e-03
2.00000000e-03
2.00000000e-03
2.00000000e-03
2.00000000e-03
2.00000000e-03
2.00000000e-03
2.00000000e-03
2.00000000e-03
2.00000000e-03
2.00000000e-03
2.00000000e-03
2.00000000e-03
2.00000000e-03
2.00000000e-03
2.00000000e-03
2.00000000e-03
2.00000000e-03
2.00000000e-03
2.00000000e-03
2.00000000e-03
2.00000000e-03
2.00000000e-03
2.00000000e-03
2.00000000e-03
2.00000000e-03
2.00000000e-03
2.00000000e-03
2.00000000e-03
2.00000000e-03
2.00000000e-03
2.00000000e-03
2.00000000e-03
2.00000000e-03
2.00000000e-03
2.00000000e-03
2.00000000e-03
2.00000000e-03
2.00000000e-03
2.00000000e-03
2.00000000e-03
2.00000000e-03
2.00000000e-03
2.00000000e-03
2.00000000e-03
2.00000000e-03
2.00000000e-03
2.00000000e-03
2.00000000e-03
2.00000000e-03
2.00000000e-03
2.00000000e-03
2.00000000e-03
2.00000000e-03
2.00000000e-03
2.00000000e-03
2.00000000e-03
2.00000000e-03
2.00000000e-03
2.00000000e-03
2.00000000e-03
2.00000000e-03
2.00000000e-03
2.00000000e-03
2.00000000e-03
2.00000000e-03
2.00000000e-03
2.00000000e-03
2.00000000e-03
2.00000000e-03
2.00000000e-03
2.00000000e-03
2.00000000e-03
2.00000000e-03
2.00000000e-03
2.00000000e-03
2.00000000e-03
2.00000000e-03
2.00000000e-03
2.00000000e-03
2.00000000e-03
2.00000000e-03
2.00000000e-03
2.00000000e-03
2.00000000e-03
2.00000000e-03
2.00000000e-03
2.00000000e-03
2.00000000e-03
2.00000000e-03
2.00000000e-03
2.00000000e-03
2.00000000e-03
2.00000000e-03
2.00000000e-03
2.00000000e-03
2.00000000e-03
2.00000000e-03
2.00000000e-03
2.00000000e-03
2.00000000e-03
2.00000000e-03
2.00000000e-03
2.00000000e-03
2.00000000e-03
2.00000000e-03
2.00000000e-03
2.00000000e-03
2.00000000e-03
2.00000000e-03
2.00000000e-03
2.00000000e-03
2.00000000e-03
2.00000000e-03
2.00000000e-03
2.00000000e-03
2.00000000e-03
2.00000000e-03
2.00000000e-03
2.00000000e-03
2.00000000e-03
2.00000000e-03
2.00000000e-03
2.00000000e-03
2.00000000e-03
2.00000000e-03
2.00000000e-03
2.00000000e-03
2.00000000e-03
2.00000000e-03
2.00000000e-03
2.00000000e-03
2.00000000e-03
2.00000000e-03
2.00000000e-03
2.00000000e-03
2.00000000e-03
2.00000000e-03
2.00000000e-03
2.00000000e-03
2.00000000e-03
2.00000000e-03
2.00000000e-03
2.00000000e-03
2.00000000e-03
2.00000000e-03
2.00000000e-03
2.00000000e-03
2.00000000e-03
2.00000000e-03
2.00000000e-03
2.00000000e-03
2.00000000e-03
2.00000000e-03
2.00000000e-03
2.00000000e-03
2.00000000e-03
2.00000000e-03
2.00000000e-03
2.00000000e-03
2.00000000e-03
2.00000000e-03
2.00000000e-03
2.00000000e-03
2.00000000e-03
2.00000000e-03
2.00000000e-03
2.00000000e-03
2.00000000e-03
2.00000000e-03
2.00000000e-03
2.00000000e-03
2.00000000e-03
2.00000000e-03
2.00000000e-03
2.00000000e-03
2.00000000e-03
2.00000000e-03
2.00000000e-03
2.00000000e-03
2.00000000e-03
2.00000000e-03
2.00000000e-03
2.00000000e-03
2.00000000e-03
2.00000000e-03
2.00000000e-03
2.00000000e-03
2.00000000e-03
2.00000000e-03
2.00000000e-03
2.00000000e-03
2.00000000e-03
2.00000000e-03
2.00000000e-03
2.00000000e-03
2.00000000e-03
2.00000000e-03
2.00000000e-03
2.00000000e-03
2.00000000e-03
2.00000000e-03
2.00000000e-03
2.00000000e-03
2.00000000e-03
2.00000000e-03
2.00000000e-03
2.00000000e-03
2.00000000e-03
2.00000000e-03
2.00000000e-03
2.00000000e-03
2.00000000e-03
2.00000000e-03
2.00000000e-03
2.00000000e-03
2.00000000e-03
2.00000000e-03
2.00000000e-03
2.00000000e-03
2.00000000e-03
2.00000000e-03
2.00000000e-03
2.00000000e-03
2.00000000e-03
2.00000000e-03
2.00000000e-03
2.00000000e-03
2.00000000e-03
2.00000000e-03
2.00000000e-03
2.00000000e-03
2.00000000e-03
2.00000000e-03
2.00000000e-03
2.00000000e-03
2.00000000e-03
2.00000000e-03
2.00000000e-03
2.00000000e-03
2.00000000e-03
2.00000000e-03
2.00000000e-03
2.00000000e-03
2.00000000e-03
2.00000000e-03
2.00000000e-03
2.00000000e-03
2.00000000e-03
2.00000000e-03
2.00000000e-03
2.00000000e-03
2.00000000e-03
2.00000000e-03
2.00000000e-03
2.00000000e-03
2.00000000e-03
2.00000000e-03
2.00000000e-03
2.00000000e-03
2.00000000e-03
2.00000000e-03
2.00000000e-03
2.00000000e-03
2.00000000e-03
2.00000000e-03
2.00000000e-03
2.00000000e-03
2.00000000e-03
2.00000000e-03
2.00000000e-03
2.00000000e-03
2.00000000e-03
2.00000000e-03
2.00000000e-03
2.00000000e-03
2.00000000e-03
2.00000000e-03
2.00000000e-03
2.00000000e-03
2.00000000e-03
2.00000000e-03
2.00000000e-03
2.00000000e-03
2.00000000e-03
2.00000000e-03
2.00000000e-03
2.00000000e-03
2.00000000e-03
2.00000000e-03
2.00000000e-03
2.00000000e-03
2.00000000e-03
2.00000000e-03
2.00000000e-03
2.00000000e-03
2.00000000e-03
2.00000000e-03
2.00000000e-03
2.00000000e-03
2.00000000e-03
2.00000000e-03
2.00000000e-03
2.00000000e-03
2.00000000e-03
2.00000000e-03
2.00000000e-03
2.00000000e-03
2.00000000e-03
2.00000000e-03
2.00000000e-03
2.00000000e-03
2.00000000e-03
2.00000000e-03
2.00000000e-03
2.00000000e-03
2.00000000e-03
2.00000000e-03
2.00000000e-03
2.00000000e-03
2.00000000e-03
2.00000000e-03
2.00000000e-03
2.00000000e-03
2.00000000e-03
2.00000000e-03
2.00000000e-03
2.00000000e-03
2.00000000e-03
2.00000000e-03
2.00000000e-03
2.00000000e-03
2.00000000e-03
2.00000000e-03
2.00000000e-03
2.00000000e-03
2.00000000e-03
2.00000000e-03
2.00000000e-03
2.00000000e-03
2.00000000e-03
2.00000000e-03
2.00000000e-03
2.00000000e-03
2.00000000e-03
2.00000000e-03
2.00000000e-03
2.00000000e-03
2.00000000e-03
2.00000000e-03
2.00000000e-03
2.00000000e-03
2.00000000e-03
2.00000000e-03
2.00000000e-03
2.00000000e-03
2.00000000e-03
2.00000000e-03
2.00000000e-03
2.00000000e-03
2.00000000e-03
2.00000000e-03
2.00000000e-03
2.00000000e-03
2.00000000e-03
2.00000000e-03
2.00000000e-03
2.00000000e-03
2.00000000e-03
2.00000000e-03
2.00000000e-03
2.00000000e-03
2.00000000e-03
2.00000000e-03
2.00000000e-03
2.00000000e-03
2.00000000e-03
2.00000000e-03
2.00000000e-03
2.00000000e-03
2.00000000e-03
2.00000000e-03
2.00000000e-03
2.00000000e-03
2.00000000e-03
2.00000000e-03
2.00000000e-03
2.00000000e-03
2.00000000e-03
2.00000000e-03
2.00000000e-03
2.00000000e-03
2.00000000e-03
2.00000000e-03
2.00000000e-03
2.00000000e-03
2.00000000e-03
2.00000000e-03
2.00000000e-03
2.00000000e-03
2.00000000e-03
2.00000000e-03
2.00000000e-03
2.00000000e-03
