# vtk DataFile Version 2.0
Particle data
ASCII
DATASET POLYDATA
POINTS 469 double
-4.22056000e-03	-3.40020000e-02	8.81692000e-03
2.27908000e-02	1.50727000e-03	1.52216000e-02
3.18765000e-02	8.40952000e-03	1.99936000e-03
3.41691000e-02	-2.07706000e-02	1.80278000e-02
3.09798000e-02	8.58955000e-03	5.89282000e-03
-5.05734000e-03	-3.96580000e-02	2.53859000e-03
-2.18401000e-03	-2.71395000e-02	1.25624000e-02
1.58598000e-02	-2.45510000e-02	1.76213000e-02
2.50077000e-02	1.71426000e-02	1.76733000e-02
3.60374000e-02	-5.86401000e-03	1.07639000e-02
-5.86718000e-04	-3.99884000e-02	1.78253000e-02
8.36963000e-03	-1.65446000e-02	1.79657000e-02
2.16997000e-02	1.86141000e-02	1.40669000e-02
3.73487000e-02	1.42358000e-02	2.03386000e-03
-2.19649000e-03	-3.98685000e-02	1.37475000e-02
3.00147000e-02	-1.55331000e-02	1.24474000e-02
2.85209000e-02	-2.31481000e-02	1.41626000e-02
2.28404000e-02	7.23970000e-03	2.00045000e-03
1.74789000e-02	-2.68548000e-02	1.39004000e-02
3.69926000e-03	-3.77271000e-02	1.09214000e-02
8.30012000e-03	-3.55279000e-02	1.99970000e-03
2.51446000e-02	5.75028000e-03	1.81000000e-02
3.39182000e-02	-1.65457000e-02	1.10433000e-02
1.47473000e-02	-1.60529000e-02	2.00002000e-03
2.92066000e-02	-1.88871000e-03	1.99985000e-03
3.69728000e-02	-8.98687000e-03	1.45067000e-02
1.67242000e-02	-3.62872000e-02	1.44992000e-02
1.56296000e-02	-8.00676000e-03	1.40882000e-02
2.87489000e-02	-2.77831000e-02	1.70017000e-02
1.41969000e-02	-1.60503000e-02	1.39211000e-02
2.37544000e-02	1.44856000e-02	1.10527000e-02
-4.40180000e-03	-2.92013000e-02	2.02107000e-03
2.07396000e-02	6.37105000e-03	9.05815000e-03
2.61027000e-02	-2.18645000e-03	1.79091000e-02
2.70269000e-02	-1.00144000e-02	9.32499000e-03
3.80215000e-02	1.20129000e-02	1.23141000e-02
-3.89424000e-03	-3.69224000e-02	5.21605000e-03
2.01715000e-02	-3.00576000e-02	9.18051000e-03
1.40000000e-02	-1.30198000e-02	1.02964000e-02
2.60505000e-02	-9.14035000e-03	2.35380000e-03
1.68653000e-02	-3.21353000e-02	8.05044000e-03
1.54945000e-02	1.71504000e-02	1.36034000e-02
3.26579000e-02	1.36441000e-04	2.00024000e-03
1.17216000e-02	-1.64179000e-02	1.03049000e-02
3.45195000e-02	-1.14956000e-02	1.24991000e-02
8.99371000e-03	-3.40727000e-02	1.05856000e-02
8.28232000e-03	-2.72307000e-02	1.40659000e-02
6.78852000e-03	-2.85460000e-02	6.85696000e-03
1.41482000e-02	-1.94441000e-02	1.17901000e-02
1.08834000e-03	-2.24451000e-02	1.80464000e-02
2.36745000e-02	6.86375000e-03	1.21498000e-02
2.14426000e-02	1.16164000e-03	1.99919000e-03
3.32071000e-02	-1.41732000e-02	1.51631000e-02
1.70643000e-02	-2.32745000e-02	7.78258000e-03
3.74519000e-02	-1.38161000e-02	5.02844000e-03
2.66440000e-02	-2.97845000e-02	1.42521000e-02
3.49226000e-02	-9.34487000e-03	9.13981000e-03
8.15542000e-03	-3.24365000e-02	1.52089000e-02
3.95156000e-02	-5.92998000e-03	1.40765000e-02
3.64231000e-02	-3.85397000e-03	1.80999000e-02
3.87094000e-02	9.74243000e-03	1.73817000e-02
2.14694000e-02	-1.54453000e-02	1.12740000e-02
3.58487000e-03	-2.69484000e-02	1.81001000e-02
2.72377000e-02	-2.44402000e-02	9.94685000e-03
3.55116000e-02	1.74904000e-02	3.65172000e-03
6.61830000e-03	-3.94287000e-02	6.79786000e-03
3.49690000e-02	4.14404000e-04	5.25318000e-03
2.81464000e-02	1.17469000e-02	1.55280000e-02
3.90003000e-02	-8.59677000e-03	1.10809000e-02
3.52058000e-02	6.14655000e-03	1.06891000e-02
1.86223000e-02	-3.53172000e-02	6.38247000e-03
2.28314000e-02	1.28949000e-02	2.17599000e-03
-1.83791000e-03	-3.42734000e-02	1.81002000e-02
1.35222000e-02	-3.46340000e-02	8.53491000e-03
2.59226000e-03	-2.41761000e-02	6.73679000e-03
1.51751000e-02	-3.54938000e-02	1.81003000e-02
1.86209000e-02	-2.79411000e-02	5.67522000e-03
1.66560000e-02	-7.56161000e-03	3.73485000e-03
2.79295000e-02	9.06890000e-03	2.40872000e-03
1.39969000e-02	-2.09327000e-02	1.81004000e-02
8.55890000e-03	-3.19921000e-02	5.69573000e-03
2.50618000e-02	-7.95185000e-03	6.51577000e-03
3.61153000e-02	-1.86748000e-03	2.16922000e-03
3.71507000e-02	6.12960000e-03	1.81002000e-02
2.81307000e-02	-5.74134000e-03	2.00963000e-03
6.70970000e-03	-3.94206000e-02	1.99974000e-03
-6.57146000e-03	-3.10844000e-02	1.07234000e-02
3.08754000e-02	-1.93918000e-02	1.30543000e-02
3.09506000e-02	7.76309000e-04	5.56594000e-03
2.36911000e-02	-2.10482000e-02	6.63551000e-03
1.10616000e-02	-3.51647000e-02	5.42657000e-03
2.31927000e-02	3.95890000e-03	4.26267000e-03
2.62769000e-02	3.23786000e-03	8.46228000e-03
1.84108000e-02	-3.53936000e-02	1.03761000e-02
3.36202000e-02	8.29764000e-03	1.81000000e-02
1.77249000e-02	5.12917000e-03	2.87907000e-03
3.03739000e-02	-2.02178000e-02	8.91259000e-03
3.10221000e-02	-9.08660000e-03	1.80953000e-02
8.37611000e-03	-2.05470000e-02	1.80952000e-02
1.99320000e-02	-1.08759000e-02	1.34505000e-02
2.56774000e-02	-1.71162000e-02	1.99960000e-03
2.58931000e-02	-1.65423000e-02	1.10496000e-02
2.49229000e-02	-2.46129000e-02	1.32096000e-02
2.54437000e-02	1.31893000e-02	1.81000000e-02
3.36901000e-02	-1.31452000e-02	8.95191000e-03
9.45821000e-03	-2.22037000e-02	2.02898000e-03
2.96062000e-02	-1.63739000e-02	2.14070000e-03
1.54548000e-02	-1.99890000e-02	1.99945000e-03
3.59571000e-02	2.52149000e-03	1.99997000e-03
2.94364000e-02	7.97886000e-04	9.26940000e-03
2.68319000e-02	-2.01821000e-02	4.29359000e-03
1.11761000e-02	-3.54122000e-02	1.80989000e-02
5.49027000e-03	-3.35573000e-02	1.24451000e-02
3.01038000e-02	-2.12488000e-02	2.25320000e-03
3.38636000e-02	2.33177000e-03	1.80999000e-02
3.56902000e-02	-5.84087000e-03	1.99943000e-03
2.31779000e-02	-3.25513000e-02	1.00489000e-02
2.87907000e-02	-1.36009000e-02	9.16591000e-03
2.99018000e-02	1.51041000e-02	1.40680000e-02
1.98608000e-02	1.62538000e-02	8.00224000e-03
1.83412000e-03	-3.03479000e-02	2.01404000e-03
5.98275000e-03	-2.37516000e-02	1.79279000e-02
5.38529000e-03	-3.96224000e-02	1.64613000e-02
3.46629000e-02	6.03648000e-03	1.49697000e-02
2.29666000e-02	2.05644000e-02	1.80304000e-02
4.80006000e-03	-3.67941000e-02	4.39916000e-03
-8.04563000e-03	-3.91365000e-02	5.21437000e-03
2.87336000e-02	1.14771000e-02	1.15806000e-02
2.44477000e-02	-2.73099000e-02	8.25599000e-03
2.21565000e-02	-2.55769000e-02	1.99953000e-03
2.00402000e-02	-3.16775000e-02	5.52634000e-03
2.40988000e-02	2.26966000e-02	6.66487000e-03
1.03325000e-02	-3.07343000e-02	1.81001000e-02
3.19169000e-02	2.02114000e-02	1.38181000e-02
1.78540000e-02	-1.36924000e-02	1.15129000e-02
3.93207000e-02	4.01113000e-03	5.39647000e-03
2.81615000e-02	1.37409000e-02	5.98169000e-03
-7.57412000e-03	-3.65697000e-02	2.18337000e-03
3.00055000e-02	-1.19592000e-02	1.42454000e-02
2.05583000e-02	-2.96745000e-02	1.72880000e-02
3.61114000e-02	2.72068000e-04	1.55091000e-02
2.89330000e-03	-3.42185000e-02	2.00172000e-03
3.49291000e-03	-3.62037000e-02	1.46819000e-02
2.39795000e-02	-3.19499000e-02	6.17546000e-03
1.91187000e-04	-3.12152000e-02	7.54530000e-03
2.79340000e-03	-3.98973000e-02	2.65726000e-03
3.72740000e-02	-1.44176000e-02	1.05570000e-02
-1.01958000e-03	-3.88835000e-02	1.99975000e-03
1.95266000e-02	-1.89644000e-02	8.80233000e-03
2.67685000e-02	-6.12537000e-03	1.81006000e-02
5.48555000e-03	-2.95769000e-02	1.20124000e-02
2.65132000e-02	-1.29841000e-02	1.80438000e-02
-1.06918000e-02	-3.83927000e-02	1.19953000e-02
1.23565000e-02	-3.80026000e-02	1.52604000e-02
1.69619000e-02	-9.86463000e-03	1.07735000e-02
1.37535000e-02	-2.31012000e-02	1.02197000e-02
-1.35779000e-02	-3.75141000e-02	5.59257000e-03
2.88148000e-02	2.09036000e-03	2.11389000e-03
3.30144000e-02	2.01430000e-02	2.00000000e-03
5.24913000e-03	-2.82622000e-02	2.76135000e-03
2.33438000e-02	1.54871000e-02	5.17945000e-03
-1.11209000e-02	-3.84095000e-02	1.99982000e-03
3.99035000e-02	-1.94939000e-03	1.41007000e-02
2.31750000e-02	-2.42839000e-02	1.81004000e-02
3.17228000e-02	-8.06164000e-03	2.00020000e-03
2.27632000e-02	-2.46812000e-03	1.57163000e-02
1.45583000e-02	-1.52176000e-02	5.96206000e-03
2.36287000e-04	-3.42960000e-02	4.99452000e-03
3.17304000e-02	-2.43322000e-02	1.80753000e-02
2.73163000e-02	-1.79896000e-02	7.60332000e-03
-6.46213000e-03	-3.93890000e-02	8.93710000e-03
3.96883000e-02	-3.77385000e-03	2.70830000e-03
1.00458000e-02	-2.48037000e-02	1.09017000e-02
-6.10488000e-03	-3.19668000e-02	1.57802000e-02
1.70168000e-02	-2.35948000e-03	4.13704000e-03
-1.09589000e-02	-3.49887000e-02	1.44601000e-02
1.41098000e-02	-5.91339000e-03	8.88593000e-03
2.88452000e-02	1.86215000e-02	1.80787000e-02
-1.05325000e-02	-3.18198000e-02	1.76748000e-02
1.99229000e-02	-2.08687000e-02	5.30753000e-03
3.30536000e-02	-2.23963000e-02	1.45467000e-02
1.66993000e-02	-1.85962000e-02	5.97147000e-03
1.45910000e-02	-1.07262000e-02	1.69409000e-02
3.41801000e-02	-2.05798000e-02	6.95856000e-03
2.19210000e-02	-8.30679000e-03	1.61948000e-02
-1.49185000e-02	-3.58392000e-02	1.10163000e-02
2.02290000e-04	-3.43857000e-02	1.12651000e-02
2.37415000e-02	1.84178000e-02	1.03198000e-02
6.03433000e-03	-3.00798000e-02	1.76606000e-02
7.35578000e-03	-1.77494000e-02	3.54988000e-03
3.44451000e-02	-1.15950000e-02	1.79592000e-02
3.46677000e-02	-5.72115000e-03	1.46718000e-02
3.77796000e-02	-1.29005000e-02	1.43417000e-02
2.95172000e-02	-2.69729000e-02	7.85217000e-03
1.41961000e-02	-2.16640000e-02	5.40591000e-03
2.12298000e-02	-2.07913000e-02	1.79817000e-02
3.18247000e-02	-4.45342000e-03	1.06867000e-02
1.84190000e-02	-7.12262000e-03	8.25320000e-03
1.09249000e-02	-2.02795000e-02	9.23502000e-03
3.94465000e-02	-6.58602000e-03	1.81003000e-02
1.41844000e-02	-3.73129000e-02	1.14304000e-02
7.48953000e-03	-3.55456000e-02	7.18499000e-03
2.29015000e-02	-2.32610000e-02	1.00295000e-02
2.73938000e-02	2.23470000e-02	1.79670000e-02
3.62715000e-02	-1.66045000e-02	1.43364000e-02
6.07266000e-03	-3.19517000e-02	8.82841000e-03
1.17820000e-02	-1.96979000e-02	1.50050000e-02
1.84225000e-02	-3.32529000e-02	1.74434000e-02
3.09584000e-02	1.64460000e-02	5.05559000e-03
1.53508000e-02	-3.01850000e-02	1.45162000e-02
3.68136000e-02	3.29039000e-03	1.29808000e-02
3.36855000e-02	-1.33214000e-02	1.99998000e-03
3.98851000e-02	-1.68027000e-03	6.11087000e-03
2.66294000e-02	-1.52987000e-02	1.47784000e-02
3.16138000e-02	2.02599000e-02	9.82996000e-03
3.50981000e-02	4.53536000e-03	5.34754000e-03
[...]
POINT_DATA 469
SCALARS Radius double 1
LOOKUP_TABLE default
2.00000000e-03
2.00000000e-03
2.00000000e-03
2.00000000e-03
2.00000000e-03
2.00000000e-03
2.00000000e-03
2.00000000e-03
2.00000000e-03
2.00000000e-03
2.00000000e-03
2.00000000e-03
2.00000000e-03
2.00000000e-03
2.00000000e-03
2.00000000e-03
2.00000000e-03
2.00000000e-03
2.00000000e-03
2.00000000e-03
2.00000000e-03
2.00000000e-03
2.00000000e-03
2.00000000e-03
2.00000000e-03
2.00000000e-03
2.00000000e-03
2.00000000e-03
2.00000000e-03
2.00000000e-03
2.00000000e-03
2.00000000e-03
2.00000000e-03
2.00000000e-03
2.00000000e-03
2.00000000e-03
2.00000000e-03
2.00000000e-03
2.00000000e-03
2.00000000e-03
2.00000000e-03
2.00000000e-03
2.00000000e-03
2.00000000e-03
2.00000000e-03
2.00000000e-03
2.00000000e-03
2.00000000e-03
2.00000000e-03
2.00000000e-03
2.00000000e-03
2.00000000e-03
2.00000000e-03
2.00000000e-03
2.00000000e-03
2.00000000e-03
2.00000000e-03
2.00000000e-03
2.00000000e-03
2.00000000e-03
2.00000000e-03
2.00000000e-03
2.00000000e-03
2.00000000e-03
2.00000000e-03
2.00000000e-03
2.00000000e-03
2.00000000e-03
2.00000000e-03
2.00000000e-03
2.00000000e-03
2.00000000e-03
2.00000000e-03
2.00000000e-03
2.00000000e-03
2.00000000e-03
2.00000000e-03
2.00000000e-03
2.00000000e-03
2.00000000e-03
2.00000000e-03
2.00000000e-03
2.00000000e-03
2.00000000e-03
2.00000000e-03
2.00000000e-03
2.00000000e-03
2.00000000e-03
2.00000000e-03
2.00000000e-03
2.00000000e-03
2.00000000e-03
2.00000000e-03
2.00000000e-03
2.00000000e-03
2.00000000e-03
2.00000000e-03
2.00000000e-03
2.00000000e-03
2.00000000e-03
2.00000000e-03
2.00000000e-03
2.00000000e-03
2.00000000e-03
2.00000000e-03
2.00000000e-03
2.00000000e-03
2.00000000e-03
2.00000000e-03
2.00000000e-03
2.00000000e-03
2.00000000e-03
2.00000000e-03
2.00000000e-03
2.00000000e-03
2.00000000e-03
2.00000000e-03
2.00000000e-03
2.00000000e-03
2.00000000e-03
2.00000000e-03
2.00000000e-03
2.00000000e-03
2.00000000e-03
2.00000000e-03
2.00000000e-03
2.00000000e-03
2.00000000e-03
2.00000000e-03
2.00000000e-03
2.00000000e-03
2.00000000e-03
2.00000000e-03
2.00000000e-03
2.00000000e-03
2.00000000e-03
2.00000000e-03
2.00000000e-03
2.00000000e-03
2.00000000e-03
2.00000000e-03
2.00000000e-03
2.00000000e-03
2.00000000e-03
2.00000000e-03
2.00000000e-03
2.00000000e-03
2.00000000e-03
2.00000000e-03
2.00000000e-03
2.00000000e-03
2.00000000e-03
2.00000000e-03
2.00000000e-03
2.00000000e-03
2.00000000e-03
2.00000000e-03
2.00000000e-03
2.00000000e-03
2.00000000e-03
2.00000000e-03
2.00000000e-03
2.00000000e-03
2.00000000e-03
2.00000000e-03
2.00000000e-03
2.00000000e-03
2.00000000e-03
2.00000000e-03
2.00000000e-03
2.00000000e-03
2.00000000e-03
2.00000000e-03
2.00000000e-03
2.00000000e-03
2.00000000e-03
2.00000000e-03
2.00000000e-03
2.00000000e-03
2.00000000e-03
2.00000000e-03
2.00000000e-03
2.00000000e-03
2.00000000e-03
2.00000000e-03
2.00000000e-03
2.00000000e-03
2.00000000e-03
2.00000000e-03
2.00000000e-03
2.00000000e-03
2.00000000e-03
2.00000000e-03
2.00000000e-03
2.00000000e-03
2.00000000e-03
2.00000000e-03
2.00000000e-03
2.00000000e-03
2.00000000e-03
2.00000000e-03
2.00000000e-03
2.00000000e-03
2.00000000e-03
2.00000000e-03
2.00000000e-03
2.00000000e-03
2.00000000e-03
2.00000000e-03
2.00000000e-03
2.00000000e-03
2.00000000e-03
2.00000000e-03
2.00000000e-03
2.00000000e-03
2.00000000e-03
2.00000000e-03
2.00000000e-03
2.00000000e-03
2.00000000e-03
2.00000000e-03
2.00000000e-03
2.00000000e-03
2.00000000e-03
2.00000000e-03
2.00000000e-03
2.00000000e-03
2.00000000e-03
2.00000000e-03
2.00000000e-03
2.00000000e-03
2.00000000e-03
2.00000000e-03
2.00000000e-03
2.00000000e-03
2.00000000e-03
2.00000000e-03
2.00000000e-03
2.00000000e-03
2.00000000e-03
2.00000000e-03
2.00000000e-03
2.00000000e-03
2.00000000e-03
2.00000000e-03
2.00000000e-03
2.00000000e-03
2.00000000e-03
2.00000000e-03
2.00000000e-03
2.00000000e-03
2.00000000e-03
2.00000000e-03
2.00000000e-03
2.00000000e-03
2.00000000e-03
2.00000000e-03
2.00000000e-03
2.00000000e-03
2.00000000e-03
2.00000000e-03
2.00000000e-03
2.00000000e-03
2.00000000e-03
2.00000000e-03
2.00000000e-03
2.00000000e-03
2.00000000e-03
2.00000000e-03
2.00000000e-03
2.00000000e-03
2.00000000e-03
2.00000000e-03
2.00000000e-03
2.00000000e-03
2.00000000e-03
2.00000000e-03
2.00000000e-03
2.00000000e-03
2.00000000e-03
2.00000000e-03
2.00000000e-03
2.00000000e-03
2.00000000e-03
2.00000000e-03
2.00000000e-03
2.00000000e-03
2.00000000e-03
2.00000000e-03
2.00000000e-03
2.00000000e-03
2.00000000e-03
2.00000000e-03
2.00000000e-03
2.00000000e-03
2.00000000e-03
2.00000000e-03
2.00000000e-03
2.00000000e-03
2.00000000e-03
2.00000000e-03
2.00000000e-03
2.00000000e-03
2.00000000e-03
2.00000000e-03
2.00000000e-03
2.00000000e-03
2.00000000e-03
2.00000000e-03
2.00000000e-03
2.00000000e-03
2.00000000e-03
2.00000000e-03
2.00000000e-03
2.00000000e-03
2.00000000e-03
2.00000000e-03
2.00000000e-03
2.00000000e-03
2.00000000e-03
2.00000000e-03
2.00000000e-03
2.00000000e-03
2.00000000e-03
2.00000000e-03
2.00000000e-03
2.00000000e-03
2.00000000e-03
2.00000000e-03
2.00000000e-03
2.00000000e-03
2.00000000e-03
2.00000000e-03
2.00000000e-03
2.00000000e-03
2.00000000e-03
2.00000000e-03
2.00000000e-03
2.00000000e-03
2.00000000e-03
2.00000000e-03
2.00000000e-03
2.00000000e-03
2.00000000e-03
2.00000000e-03
2.00000000e-03
2.00000000e-03
2.00000000e-03
2.00000000e-03
2.00000000e-03
2.00000000e-03
2.00000000e-03
2.00000000e-03
2.00000000e-03
2.00000000e-03
2.00000000e-03
2.00000000e-03
2.00000000e-03
2.00000000e-03
2.00000000e-03
2.00000000e-03
2.00000000e-03
2.00000000e-03
2.00000000e-03
2.00000000e-03
2.00000000e-03
2.00000000e-03
2.00000000e-03
2.00000000e-03
2.00000000e-03
2.00000000e-03
2.00000000e-03
2.00000000e-03
2.00000000e-03
2.00000000e-03
2.00000000e-03
2.00000000e-03
2.00000000e-03
2.00000000e-03
2.00000000e-03
2.00000000e-03
2.00000000e-03
2.00000000e-03
2.00000000e-03
2.00000000e-03
2.00000000e-03
2.00000000e-03
2.00000000e-03
2.00000000e-03
2.00000000e-03
2.00000000e-03
2.00000000e-03
2.00000000e-03
2.00000000e-03
2.00000000e-03
2.00000000e-03
2.00000000e-03
2.00000000e-03
2.00000000e-03
2.00000000e-03
2.00000000e-03
2.00000000e-03
2.00000000e-03
2.00000000e-03
2.00000000e-03
2.00000000e-03
2.00000000e-03
2.00000000e-03
2.00000000e-03
2.00000000e-03
2.00000000e-03
2.00000000e-03
2.00000000e-03
2.00000000e-03
2.00000000e-03
2.00000000e-03
2.00000000e-03
2.00000000e-03
2.00000000e-03
2.00000000e-03
2.00000000e-03
2.00000000e-03
2.00000000e-03
2.00000000e-03
2.00000000e-03
2.00000000e-03
2.00000000e-03
2.00000000e-03
2.00000000e-03
2.00000000e-03
2.00000000e-03
2.00000000e-03
2.00000000e-03
2.00000000e-03
2.00000000e-03
2.00000000e-03
2.00000000e-03
2.00000000e-03
2.00000000e-03
2.00000000e-03
2.00000000e-03
2.00000000e-03
2.00000000e-03
2.00000000e-03
2.00000000e-03
2.00000000e-03
2.00000000e-03
2.00000000e-03
2.00000000e-03
2.00000000e-03
2.00000000e-03
2.00000000e-03
2.00000000e-03
2.00000000e-03
2.00000000e-03
2.00000000e-03
2.00000000e-03
2.00000000e-03
2.00000000e-03
2.00000000e-03
2.00000000e-03
2.00000000e-03
2.00000000e-03
2.00000000e-03
2.00000000e-03
2.00000000e-03
2.00000000e-03
2.00000000e-03
2.00000000e-03
