# vtk DataFile Version 2.0
Particle data
ASCII
DATASET POLYDATA
POINTS 469 double
3.07565000e-02	1.60299000e-02	8.72085000e-03
3.17288000e-02	5.65297000e-03	1.44953000e-02
2.95708000e-02	-4.82183000e-03	6.14517000e-03
6.83527000e-03	-3.31382000e-02	1.04196000e-02
2.20079000e-02	-4.02829000e-03	2.14418000e-03
3.14346000e-02	2.08044000e-02	3.38984000e-03
2.90613000e-02	1.11520000e-02	1.23487000e-02
1.14760000e-02	-2.79210000e-02	1.80699000e-02
3.68294000e-02	-2.22031000e-03	1.81005000e-02
1.85981000e-02	-3.32121000e-02	1.81005000e-02
2.02983000e-02	1.32587000e-02	1.51914000e-02
3.01425000e-02	7.24549000e-03	1.80992000e-02
3.76355000e-02	-1.34068000e-02	1.22575000e-02
2.60963000e-02	-3.93330000e-03	3.87610000e-03
2.77363000e-02	1.63610000e-02	1.55919000e-02
1.40719000e-02	-3.73984000e-02	1.00814000e-02
1.30627000e-02	-2.43416000e-02	6.05803000e-03
3.56076000e-02	4.17062000e-03	1.99892000e-03
1.08434000e-02	-2.66659000e-02	1.34607000e-02
1.33072000e-02	-1.57040000e-03	1.15960000e-02
1.04045000e-02	-4.87794000e-03	2.03418000e-03
3.59759000e-02	-6.64996000e-03	1.77719000e-02
5.59671000e-03	-3.95955000e-02	2.01357000e-03
1.78202000e-02	-1.26279000e-02	2.01206000e-03
2.45503000e-02	-7.11315000e-03	2.00594000e-03
2.05913000e-02	-2.95196000e-02	8.55150000e-03
-1.13686000e-02	-3.52121000e-02	1.36308000e-02
3.62754000e-02	-4.37399000e-04	1.33229000e-02
-3.68586000e-04	-3.66718000e-02	1.09395000e-02
1.34955000e-02	-2.42609000e-02	1.52475000e-02
3.31225000e-02	-9.03659000e-04	1.04812000e-02
3.91425000e-02	7.95380000e-03	1.99957000e-03
3.42444000e-02	5.24024000e-03	5.60267000e-03
2.68936000e-02	-1.15492000e-02	1.81003000e-02
2.86714000e-02	-2.77823000e-02	1.08918000e-02
3.27466000e-02	-4.80186000e-03	1.12945000e-02
3.05594000e-02	1.96952000e-02	7.13188000e-03
-7.10976000e-03	-3.92528000e-02	9.98440000e-03
3.01885000e-02	6.21739000e-03	1.02001000e-02
1.80245000e-02	-8.63647000e-03	2.16568000e-03
-4.32856000e-03	-3.68145000e-02	1.15055000e-02
3.91735000e-02	7.73612000e-03	1.44093000e-02
2.83623000e-02	-2.81746000e-02	2.49589000e-03
1.59466000e-02	-9.44714000e-03	1.80999000e-02
2.09796000e-02	-2.05144000e-02	1.65796000e-02
1.54098000e-03	-2.21816000e-02	1.43981000e-02
1.48478000e-02	-1.42175000e-02	1.03195000e-02
-4.82817000e-03	-2.72700000e-02	1.45423000e-02
6.68238000e-03	-2.71426000e-02	1.14917000e-02
1.61303000e-02	-3.56222000e-03	1.72853000e-02
1.21797000e-02	-2.64722000e-02	2.78194000e-03
9.27507000e-03	-2.31184000e-02	9.10594000e-03
-1.12922000e-02	-3.82950000e-02	1.09186000e-02
1.25470000e-02	-2.25681000e-02	1.99947000e-03
1.56498000e-02	-3.31297000e-02	1.14072000e-02
4.14524000e-03	-3.44074000e-02	1.52321000e-02
1.76484000e-02	-3.58454000e-02	9.18853000e-03
3.76140000e-03	-1.88531000e-02	1.44404000e-02
2.83928000e-02	-2.25432000e-02	1.44574000e-02
2.20519000e-02	-2.39933000e-02	1.49196000e-02
2.98474000e-02	-2.06767000e-02	1.80885000e-02
2.65043000e-02	-1.46150000e-02	1.05981000e-02
1.91958000e-02	-1.17462000e-02	1.77005000e-02
6.33550000e-03	-3.68943000e-02	9.14160000e-03
3.33087000e-02	-6.54494000e-03	4.67465000e-03
1.41266000e-02	6.80206000e-04	1.47977000e-02
2.52944000e-02	-3.09819000e-02	3.24049000e-03
3.16630000e-02	3.54596000e-03	1.80997000e-02
2.36595000e-02	-2.87269000e-02	6.11120000e-03
3.62046000e-02	-1.69253000e-02	1.00134000e-02
-7.96915000e-04	-3.18920000e-02	5.43342000e-03
3.70957000e-02	-6.39624000e-03	1.99946000e-03
2.29345000e-02	1.03590000e-02	1.80990000e-02
-2.01823000e-02	-3.44821000e-02	9.95814000e-03
3.77843000e-02	1.23340000e-02	5.95533000e-03
-3.58725000e-03	-3.36113000e-02	1.81001000e-02
9.90374000e-03	-2.65436000e-02	7.13843000e-03
2.62641000e-02	6.90445000e-03	1.11069000e-02
3.60572000e-02	-1.72880000e-02	1.81005000e-02
1.25974000e-02	-3.79558000e-02	1.81001000e-02
1.33963000e-03	-2.50632000e-02	1.08225000e-02
2.83794000e-02	-1.21966000e-02	6.83826000e-03
2.59659000e-02	-1.50328000e-02	2.00001000e-03
2.33211000e-02	-1.69559000e-02	1.81005000e-02
2.79068000e-02	-1.85202000e-02	2.26311000e-03
4.46790000e-03	-5.67471000e-03	2.02282000e-03
3.53823000e-02	9.15096000e-03	1.44613000e-02
9.22532000e-03	-3.88888000e-02	1.10562000e-02
3.27154000e-02	-1.63973000e-02	6.52419000e-03
2.03099000e-02	-2.69109000e-02	4.22446000e-03
-1.22076000e-02	-3.21244000e-02	1.08692000e-02
2.43354000e-02	7.54705000e-03	2.36722000e-03
3.70167000e-02	-4.58633000e-03	6.39914000e-03
-1.49697000e-02	-3.70346000e-02	2.02612000e-03
3.00213000e-02	-8.89970000e-04	6.71838000e-03
3.98584000e-02	-2.53872000e-03	8.33056000e-03
6.39173000e-03	-3.94640000e-02	5.99023000e-03
2.16908000e-02	-2.91623000e-02	1.23805000e-02
2.40953000e-02	-8.45159000e-03	1.81017000e-02
2.55514000e-02	-4.25373000e-03	7.82581000e-03
1.79019000e-02	-2.66391000e-02	7.40659000e-03
1.98435000e-02	-2.59654000e-02	1.08423000e-02
-2.66765000e-03	-3.68749000e-02	1.59784000e-02
3.75419000e-02	-1.37667000e-02	1.69209000e-02
2.18180000e-02	-2.51211000e-02	7.46768000e-03
-5.25703000e-03	-2.68394000e-02	3.76672000e-03
1.69017000e-02	-1.99050000e-02	6.55767000e-03
1.68550000e-02	-2.35996000e-02	5.02671000e-03
2.16228000e-02	-2.99737000e-02	2.01479000e-03
2.46547000e-02	2.64457000e-03	5.38846000e-03
1.56907000e-02	-3.38019000e-02	1.99992000e-03
6.64900000e-03	-1.16766000e-02	1.65270000e-02
5.15745000e-04	-2.46169000e-02	1.74021000e-02
8.92509000e-03	-3.24913000e-02	1.99908000e-03
2.93132000e-02	-1.50075000e-02	1.42860000e-02
2.36299000e-02	-2.33103000e-02	1.99903000e-03
-1.94914000e-02	-3.49166000e-02	1.61116000e-02
1.70817000e-02	-3.60925000e-02	4.96929000e-03
2.91549000e-02	1.73004000e-04	1.04751000e-02
3.88068000e-02	9.07908000e-03	8.04129000e-03
1.91566000e-02	5.61206000e-03	2.00447000e-03
1.90324000e-02	-1.39165000e-02	1.24852000e-02
1.52523000e-02	8.92442000e-03	1.43164000e-02
3.40504000e-02	-2.08878000e-02	5.75078000e-03
3.88707000e-02	-9.38886000e-03	1.81011000e-02
9.62670000e-03	-8.47470000e-03	7.73965000e-03
3.49722000e-02	1.69590000e-02	7.05747000e-03
3.08455000e-02	9.45707000e-03	7.78780000e-03
3.41950000e-03	-3.53108000e-02	1.13749000e-02
2.39790000e-04	-2.95869000e-02	2.04810000e-03
5.09954000e-03	-3.13246000e-02	2.00044000e-03
3.90595000e-02	-8.53094000e-03	4.75278000e-03
1.29186000e-02	-6.82508000e-03	1.78943000e-02
3.61089000e-02	5.34604000e-03	1.34661000e-02
1.35608000e-02	-1.67018000e-02	5.83946000e-03
3.25433000e-02	-2.30799000e-02	1.33947000e-02
3.28768000e-02	9.72519000e-04	3.88789000e-03
2.99352000e-02	1.73667000e-02	1.99984000e-03
1.66043000e-02	-2.01741000e-02	1.12986000e-02
7.71073000e-03	-2.83852000e-02	1.58657000e-02
2.76102000e-02	-1.87342000e-02	1.53912000e-02
1.29122000e-02	1.39900000e-03	6.61530000e-03
1.46244000e-02	-1.07837000e-02	1.23895000e-02
-1.06462000e-02	-3.85389000e-02	2.00123000e-03
2.68699000e-02	1.03155000e-02	9.10923000e-03
1.31388000e-02	3.58906000e-03	2.05948000e-03
9.77806000e-03	-3.87791000e-02	2.04944000e-03
2.58780000e-02	1.69044000e-02	2.00081000e-03
1.97168000e-02	-1.37560000e-02	8.54753000e-03
1.88144000e-02	-2.74300000e-02	1.47343000e-02
1.71833000e-02	-6.20936000e-03	8.20191000e-03
2.07101000e-02	-1.94385000e-02	8.60108000e-03
3.59264000e-02	1.67115000e-02	1.20366000e-02
-4.75684000e-03	-2.27539000e-02	1.71424000e-02
8.11916000e-03	-2.97662000e-02	8.69515000e-03
9.75438000e-03	-3.37417000e-02	1.41833000e-02
3.65195000e-02	1.53653000e-02	3.67359000e-03
1.98842000e-02	-8.09274000e-03	5.66841000e-03
3.63300000e-02	-1.66745000e-02	1.41569000e-02
2.28949000e-02	3.83391000e-03	1.99960000e-03
3.62035000e-02	-5.10104000e-04	7.32655000e-03
3.42736000e-02	1.82200000e-02	1.99966000e-03
3.22743000e-02	-1.98211000e-02	9.20641000e-03
7.68596000e-04	-3.63639000e-02	1.81000000e-02
2.25841000e-02	-1.25810000e-02	1.99897000e-03
2.82083000e-02	3.88796000e-03	1.30067000e-02
5.63003000e-03	-2.95965000e-02	5.56877000e-03
1.91190000e-02	1.08364000e-02	4.37896000e-03
5.29147000e-03	-3.70012000e-02	1.81001000e-02
1.21166000e-02	-3.80691000e-02	6.40632000e-03
3.31064000e-02	1.88953000e-02	1.02266000e-02
2.42014000e-02	-2.68355000e-02	1.01838000e-02
-3.01202000e-03	-2.63685000e-02	1.81002000e-02
3.14647000e-02	9.59154000e-03	1.51389000e-02
2.21562000e-02	9.01052000e-03	6.26535000e-03
3.34400000e-02	1.25173000e-02	1.22157000e-02
3.97969000e-02	3.94709000e-03	2.12754000e-03
3.41702000e-02	-1.14846000e-02	1.81008000e-02
3.73214000e-02	1.29516000e-02	1.80975000e-02
2.39541000e-02	-1.40694000e-02	7.39537000e-03
-7.39190000e-04	-3.63777000e-02	4.63486000e-03
2.89962000e-02	-1.57779000e-02	5.02719000e-03
2.29512000e-02	-6.01112000e-04	1.80793000e-02
-1.36049000e-03	-3.99672000e-02	1.38041000e-02
2.85550000e-02	-8.94493000e-03	1.19401000e-02
3.72783000e-02	1.38108000e-02	9.63758000e-03
2.17406000e-02	5.86105000e-03	1.14286000e-02
3.98772000e-02	2.53609000e-03	1.44517000e-02
1.87007000e-02	-6.54521000e-03	1.79934000e-02
3.79722000e-02	1.17785000e-02	1.99941000e-03
1.33230000e-02	-3.48222000e-02	1.56300000e-02
2.55212000e-02	-1.37404000e-02	1.43738000e-02
5.68006000e-03	-3.95576000e-02	1.50486000e-02
-1.10592000e-02	-3.84119000e-02	1.81000000e-02
2.39843000e-02	-7.42023000e-03	5.95366000e-03
5.36642000e-03	-3.08796000e-02	1.37969000e-02
3.16748000e-02	-1.10633000e-02	1.06079000e-02
1.43010000e-02	-2.67554000e-02	9.19966000e-03
9.08085000e-03	-1.80285000e-02	8.93332000e-03
2.04073000e-02	-2.96465000e-02	1.80916000e-02
-1.02835000e-02	-3.13540000e-02	1.44047000e-02
-9.88655000e-04	-2.61278000e-02	1.39739000e-02
8.74335000e-03	-3.90250000e-02	1.80999000e-02
3.87158000e-02	-9.62348000e-03	1.15458000e-02
1.92221000e-02	-3.14064000e-02	1.45866000e-02
-1.68847000e-03	-2.78944000e-02	6.92737000e-03
-2.15550000e-03	-3.39623000e-02	1.32768000e-02
-3.93118000e-03	-3.43310000e-02	5.91094000e-03
3.27850000e-02	-2.27658000e-03	1.43964000e-02
8.21316000e-04	-3.22635000e-02	1.12149000e-02
3.02991000e-02	-2.60676000e-02	1.48186000e-02
1.94683000e-02	-2.36967000e-02	2.00007000e-03
2.58119000e-02	-2.57392000e-02	1.36775000e-02
2.46835000e-02	-2.12043000e-02	1.37884000e-02
3.39328000e-02	2.35062000e-03	1.49776000e-02
2.92113000e-02	-6.20799000e-03	2.14772000e-03
[...]
POINT_DATA 469
SCALARS Radius double 1
LOOKUP_TABLE default
2.00000000e-03
2.00000000e-03
2.00000000e-03
2.00000000e-03
2.00000000e-03
2.00000000e-03
2.00000000e-03
2.00000000e-03
2.00000000e-03
2.00000000e-03
2.00000000e-03
2.00000000e-03
2.00000000e-03
2.00000000e-03
2.00000000e-03
2.00000000e-03
2.00000000e-03
2.00000000e-03
2.00000000e-03
2.00000000e-03
2.00000000e-03
2.00000000e-03
2.00000000e-03
2.00000000e-03
2.00000000e-03
2.00000000e-03
2.00000000e-03
2.00000000e-03
2.00000000e-03
2.00000000e-03
2.00000000e-03
2.00000000e-03
2.00000000e-03
2.00000000e-03
2.00000000e-03
2.00000000e-03
2.00000000e-03
2.00000000e-03
2.00000000e-03
2.00000000e-03
2.00000000e-03
2.00000000e-03
2.00000000e-03
2.00000000e-03
2.00000000e-03
2.00000000e-03
2.00000000e-03
2.00000000e-03
2.00000000e-03
2.00000000e-03
2.00000000e-03
2.00000000e-03
2.00000000e-03
2.00000000e-03
2.00000000e-03
2.00000000e-03
2.00000000e-03
2.00000000e-03
2.00000000e-03
2.00000000e-03
2.00000000e-03
2.00000000e-03
2.00000000e-03
2.00000000e-03
2.00000000e-03
2.00000000e-03
2.00000000e-03
2.00000000e-03
2.00000000e-03
2.00000000e-03
2.00000000e-03
2.00000000e-03
2.00000000e-03
2.00000000e-03
2.00000000e-03
2.00000000e-03
2.00000000e-03
2.00000000e-03
2.00000000e-03
2.00000000e-03
2.00000000e-03
2.00000000e-03
2.00000000e-03
2.00000000e-03
2.00000000e-03
2.00000000e-03
2.00000000e-03
2.00000000e-03
2.00000000e-03
2.00000000e-03
2.00000000e-03
2.00000000e-03
2.00000000e-03
2.00000000e-03
2.00000000e-03
2.00000000e-03
2.00000000e-03
2.00000000e-03
2.00000000e-03
2.00000000e-03
2.00000000e-03
2.00000000e-03
2.00000000e-03
2.00000000e-03
2.00000000e-03
2.00000000e-03
2.00000000e-03
2.00000000e-03
2.00000000e-03
2.00000000e-03
2.00000000e-03
2.00000000e-03
2.00000000e-03
2.00000000e-03
2.00000000e-03
2.00000000e-03
2.00000000e-03
2.00000000e-03
2.00000000e-03
2.00000000e-03
2.00000000e-03
2.00000000e-03
2.00000000e-03
2.00000000e-03
2.00000000e-03
2.00000000e-03
2.00000000e-03
2.00000000e-03
2.00000000e-03
2.00000000e-03
2.00000000e-03
2.00000000e-03
2.00000000e-03
2.00000000e-03
2.00000000e-03
2.00000000e-03
2.00000000e-03
2.00000000e-03
2.00000000e-03
2.00000000e-03
2.00000000e-03
2.00000000e-03
2.00000000e-03
2.00000000e-03
2.00000000e-03
2.00000000e-03
2.00000000e-03
2.00000000e-03
2.00000000e-03
2.00000000e-03
2.00000000e-03
2.00000000e-03
2.00000000e-03
2.00000000e-03
2.00000000e-03
2.00000000e-03
2.00000000e-03
2.00000000e-03
2.00000000e-03
2.00000000e-03
2.00000000e-03
2.00000000e-03
2.00000000e-03
2.00000000e-03
2.00000000e-03
2.00000000e-03
2.00000000e-03
2.00000000e-03
2.00000000e-03
2.00000000e-03
2.00000000e-03
2.00000000e-03
2.00000000e-03
2.00000000e-03
2.00000000e-03
2.00000000e-03
2.00000000e-03
2.00000000e-03
2.00000000e-03
2.00000000e-03
2.00000000e-03
2.00000000e-03
2.00000000e-03
2.00000000e-03
2.00000000e-03
2.00000000e-03
2.00000000e-03
2.00000000e-03
2.00000000e-03
2.00000000e-03
2.00000000e-03
2.00000000e-03
2.00000000e-03
2.00000000e-03
2.00000000e-03
2.00000000e-03
2.00000000e-03
2.00000000e-03
2.00000000e-03
2.00000000e-03
2.00000000e-03
2.00000000e-03
2.00000000e-03
2.00000000e-03
2.00000000e-03
2.00000000e-03
2.00000000e-03
2.00000000e-03
2.00000000e-03
2.00000000e-03
2.00000000e-03
2.00000000e-03
2.00000000e-03
2.00000000e-03
2.00000000e-03
2.00000000e-03
2.00000000e-03
2.00000000e-03
2.00000000e-03
2.00000000e-03
2.00000000e-03
2.00000000e-03
2.00000000e-03
2.00000000e-03
2.00000000e-03
2.00000000e-03
2.00000000e-03
2.00000000e-03
2.00000000e-03
2.00000000e-03
2.00000000e-03
2.00000000e-03
2.00000000e-03
2.00000000e-03
2.00000000e-03
2.00000000e-03
2.00000000e-03
2.00000000e-03
2.00000000e-03
2.00000000e-03
2.00000000e-03
2.00000000e-03
2.00000000e-03
2.00000000e-03
2.00000000e-03
2.00000000e-03
2.00000000e-03
2.00000000e-03
2.00000000e-03
2.00000000e-03
2.00000000e-03
2.00000000e-03
2.00000000e-03
2.00000000e-03
2.00000000e-03
2.00000000e-03
2.00000000e-03
2.00000000e-03
2.00000000e-03
2.00000000e-03
2.00000000e-03
2.00000000e-03
2.00000000e-03
2.00000000e-03
2.00000000e-03
2.00000000e-03
2.00000000e-03
2.00000000e-03
2.00000000e-03
2.00000000e-03
2.00000000e-03
2.00000000e-03
2.00000000e-03
2.00000000e-03
2.00000000e-03
2.00000000e-03
2.00000000e-03
2.00000000e-03
2.00000000e-03
2.00000000e-03
2.00000000e-03
2.00000000e-03
2.00000000e-03
2.00000000e-03
2.00000000e-03
2.00000000e-03
2.00000000e-03
2.00000000e-03
2.00000000e-03
2.00000000e-03
2.00000000e-03
2.00000000e-03
2.00000000e-03
2.00000000e-03
2.00000000e-03
2.00000000e-03
2.00000000e-03
2.00000000e-03
2.00000000e-03
2.00000000e-03
2.00000000e-03
2.00000000e-03
2.00000000e-03
2.00000000e-03
2.00000000e-03
2.00000000e-03
2.00000000e-03
2.00000000e-03
2.00000000e-03
2.00000000e-03
2.00000000e-03
2.00000000e-03
2.00000000e-03
2.00000000e-03
2.00000000e-03
2.00000000e-03
2.00000000e-03
2.00000000e-03
2.00000000e-03
2.00000000e-03
2.00000000e-03
2.00000000e-03
2.00000000e-03
2.00000000e-03
2.00000000e-03
2.00000000e-03
2.00000000e-03
2.00000000e-03
2.00000000e-03
2.00000000e-03
2.00000000e-03
2.00000000e-03
2.00000000e-03
2.00000000e-03
2.00000000e-03
2.00000000e-03
2.00000000e-03
2.00000000e-03
2.00000000e-03
2.00000000e-03
2.00000000e-03
2.00000000e-03
2.00000000e-03
2.00000000e-03
2.00000000e-03
2.00000000e-03
2.00000000e-03
2.00000000e-03
2.00000000e-03
2.00000000e-03
2.00000000e-03
2.00000000e-03
2.00000000e-03
2.00000000e-03
2.00000000e-03
2.00000000e-03
2.00000000e-03
2.00000000e-03
2.00000000e-03
2.00000000e-03
2.00000000e-03
2.00000000e-03
2.00000000e-03
2.00000000e-03
2.00000000e-03
2.00000000e-03
2.00000000e-03
2.00000000e-03
2.00000000e-03
2.00000000e-03
2.00000000e-03
2.00000000e-03
2.00000000e-03
2.00000000e-03
2.00000000e-03
2.00000000e-03
2.00000000e-03
2.00000000e-03
2.00000000e-03
2.00000000e-03
2.00000000e-03
2.00000000e-03
2.00000000e-03
2.00000000e-03
2.00000000e-03
2.00000000e-03
2.00000000e-03
2.00000000e-03
2.00000000e-03
2.00000000e-03
2.00000000e-03
2.00000000e-03
2.00000000e-03
2.00000000e-03
2.00000000e-03
2.00000000e-03
2.00000000e-03
2.00000000e-03
2.00000000e-03
2.00000000e-03
2.00000000e-03
2.00000000e-03
2.00000000e-03
2.00000000e-03
2.00000000e-03
2.00000000e-03
2.00000000e-03
2.00000000e-03
2.00000000e-03
2.00000000e-03
2.00000000e-03
2.00000000e-03
2.00000000e-03
2.00000000e-03
2.00000000e-03
2.00000000e-03
2.00000000e-03
2.00000000e-03
2.00000000e-03
2.00000000e-03
2.00000000e-03
2.00000000e-03
2.00000000e-03
2.00000000e-03
2.00000000e-03
2.00000000e-03
2.00000000e-03
2.00000000e-03
2.00000000e-03
2.00000000e-03
2.00000000e-03
2.00000000e-03
2.00000000e-03
2.00000000e-03
2.00000000e-03
2.00000000e-03
2.00000000e-03
2.00000000e-03
2.00000000e-03
2.00000000e-03
2.00000000e-03
2.00000000e-03
2.00000000e-03
2.00000000e-03
2.00000000e-03
2.00000000e-03
2.00000000e-03
2.00000000e-03
2.00000000e-03
2.00000000e-03
2.00000000e-03
2.00000000e-03
2.00000000e-03
2.00000000e-03
2.00000000e-03
2.00000000e-03
2.00000000e-03
2.00000000e-03
2.00000000e-03
2.00000000e-03
2.00000000e-03
2.00000000e-03
2.00000000e-03
2.00000000e-03
2.00000000e-03
2.00000000e-03
2.00000000e-03
2.00000000e-03
2.00000000e-03
