# vtk DataFile Version 2.0
Particle data
ASCII
DATASET POLYDATA
POINTS 469 double
3.24775000e-02	-1.61149000e-02	1.43990000e-02
2.59181000e-02	-1.14457000e-02	1.30723000e-02
1.54951000e-02	-3.68658000e-02	1.43509000e-02
2.74385000e-02	1.12283000e-02	7.28004000e-03
2.88350000e-02	-4.97533000e-03	2.50057000e-03
2.72024000e-02	-2.44858000e-02	2.11331000e-03
2.71649000e-02	-2.93494000e-02	1.79027000e-02
1.43626000e-02	-8.20949000e-03	1.80979000e-02
1.86680000e-03	-3.99326000e-02	1.71500000e-02
1.92522000e-02	1.21763000e-02	1.66492000e-02
3.40683000e-02	-1.27117000e-02	7.51951000e-03
2.43871000e-02	-1.80738000e-02	1.81002000e-02
-1.24881000e-02	-3.79949000e-02	6.67924000e-03
2.25980000e-02	-1.34847000e-02	4.23432000e-03
3.27607000e-02	-9.17689000e-03	1.41919000e-02
3.10461000e-02	1.94609000e-02	9.66847000e-03
1.43371000e-02	-1.73214000e-02	6.85999000e-03
2.27845000e-02	-2.40381000e-02	2.38894000e-03
1.85816000e-02	-5.55422000e-03	9.85652000e-03
3.46760000e-02	-1.98243000e-02	4.86110000e-03
3.56589000e-02	-7.69754000e-03	1.99942000e-03
7.62407000e-03	-3.57189000e-02	1.81004000e-02
3.54985000e-02	1.71215000e-02	2.09481000e-03
1.65601000e-02	-3.45243000e-02	5.08726000e-03
2.24822000e-02	-2.75475000e-02	5.64313000e-03
1.30348000e-02	2.32048000e-03	1.12153000e-02
3.98995000e-02	-2.20907000e-03	1.46590000e-02
1.91813000e-02	-2.94485000e-02	1.81003000e-02
3.43606000e-02	1.08681000e-02	1.18620000e-02
1.48203000e-03	-2.24963000e-02	1.80981000e-02
2.66381000e-02	-1.67205000e-02	8.83566000e-03
2.63253000e-03	-3.98404000e-02	9.18588000e-03
2.29692000e-02	-2.03029000e-02	7.97315000e-03
1.27713000e-02	-2.74417000e-02	1.51674000e-02
-8.73733000e-03	-3.03124000e-02	5.93924000e-03
1.78481000e-02	-2.22130000e-02	1.35321000e-02
3.46631000e-02	-1.98086000e-02	9.37691000e-03
3.93039000e-02	7.37882000e-03	1.04815000e-02
2.57298000e-02	-2.08696000e-02	1.42632000e-02
3.09065000e-02	-1.30615000e-02	4.91877000e-03
3.57920000e-02	7.17019000e-03	1.23848000e-02
1.71016000e-02	-3.19030000e-02	1.57240000e-02
5.16434000e-03	-1.58564000e-02	3.72792000e-03
3.37786000e-02	-1.39667000e-02	1.79783000e-02
1.33319000e-02	-2.29840000e-02	1.51329000e-02
3.52260000e-02	-6.88905000e-03	1.15977000e-02
2.42736000e-02	-7.64448000e-03	1.10201000e-02
3.62329000e-02	-9.56942000e-05	1.33647000e-02
1.98284000e-02	-8.99318000e-03	8.23950000e-03
3.77163000e-02	-1.32646000e-02	1.80117000e-02
2.33244000e-02	1.97315000e-03	2.00123000e-03
2.62768000e-02	-2.81953000e-03	8.95276000e-03
3.97855000e-02	3.24701000e-03	1.22773000e-02
1.29833000e-02	-1.21122000e-02	1.99997000e-03
2.24519000e-02	1.33669000e-02	9.84699000e-03
2.85702000e-02	1.36441000e-02	1.45695000e-02
2.47976000e-02	1.79828000e-02	1.02229000e-02
3.36160000e-02	-2.09961000e-03	1.81010000e-02
1.40171000e-03	-3.06513000e-02	1.32511000e-02
6.32433000e-03	-2.03781000e-02	1.35528000e-02
-6.02804000e-04	-3.40136000e-02	1.24166000e-02
1.46959000e-02	-2.54419000e-02	1.22873000e-02
1.71228000e-02	-1.51019000e-02	1.80822000e-02
3.24462000e-02	1.59024000e-02	8.49002000e-03
1.69158000e-02	-2.82124000e-02	3.79705000e-03
3.34278000e-02	-5.99834000e-03	5.44068000e-03
1.49418000e-02	2.00806000e-03	3.85954000e-03
2.24236000e-02	-2.26728000e-02	1.56149000e-02
8.26454000e-03	-1.46555000e-02	5.96213000e-03
-3.88831000e-03	-3.57909000e-02	2.01573000e-03
3.51035000e-02	7.17446000e-03	8.15213000e-03
1.97451000e-03	-3.86837000e-02	5.41486000e-03
3.59926000e-02	-1.74342000e-02	1.77885000e-02
3.65015000e-02	-1.62371000e-02	1.40057000e-02
1.46088000e-02	-3.72332000e-02	2.88439000e-03
3.25006000e-02	6.23440000e-03	1.80929000e-02
9.72469000e-04	-2.54484000e-02	4.41842000e-03
3.16770000e-02	-2.43360000e-02	6.26660000e-03
-1.30929000e-02	-3.77727000e-02	1.76701000e-02
3.00806000e-02	1.85460000e-02	1.80999000e-02
3.49503000e-02	5.42314000e-05	9.54705000e-03
1.94860000e-02	-1.27348000e-02	6.86968000e-03
6.52114000e-03	-2.61652000e-02	8.54075000e-03
1.06975000e-02	-2.56090000e-02	1.80551000e-02
1.14515000e-03	-3.52207000e-02	3.59317000e-03
3.86614000e-02	-1.01543000e-02	2.98780000e-03
2.30590000e-02	-1.09010000e-02	1.80996000e-02
3.50050000e-02	1.84996000e-02	1.02334000e-02
1.40543000e-02	-2.76447000e-02	6.54169000e-03
1.31587000e-02	-1.36887000e-02	5.67192000e-03
3.97491000e-02	-3.94361000e-03	1.07158000e-02
3.36949000e-02	-9.91632000e-03	4.68520000e-03
9.28068000e-03	-3.88444000e-02	9.36575000e-03
3.99596000e-02	-1.22044000e-03	2.57311000e-03
2.15839000e-02	-2.08931000e-02	1.16806000e-02
-2.22382000e-03	-3.99262000e-02	1.78403000e-02
3.60670000e-02	1.71421000e-02	6.07472000e-03
5.87914000e-03	-1.39307000e-02	1.25331000e-02
1.20318000e-02	-3.05969000e-02	1.05215000e-02
2.69877000e-02	-2.05092000e-02	1.00680000e-02
5.60130000e-03	-1.85096000e-02	9.41700000e-03
1.94548000e-02	-1.73556000e-03	1.06813000e-02
3.55661000e-02	9.58409000e-03	1.55656000e-02
3.31590000e-03	-3.35234000e-02	1.53680000e-02
-2.30792000e-03	-2.98131000e-02	1.53895000e-02
3.91369000e-02	-7.89327000e-03	1.08575000e-02
1.63301000e-02	-2.07845000e-02	7.03260000e-03
4.66684000e-03	-2.24341000e-02	9.59736000e-03
1.91194000e-02	2.90653000e-03	2.28332000e-03
2.95162000e-02	-1.30534000e-02	8.70510000e-03
2.44215000e-02	1.87855000e-02	2.67703000e-03
3.64216000e-02	-4.94887000e-03	1.81005000e-02
3.20775000e-02	2.25695000e-03	1.81005000e-02
2.43527000e-02	1.47768000e-02	2.56627000e-03
-5.21754000e-03	-3.72517000e-02	1.79163000e-02
-6.55029000e-03	-2.40244000e-02	2.01712000e-03
3.94004000e-02	-6.17245000e-03	1.44577000e-02
2.70018000e-02	1.94006000e-02	5.70819000e-03
2.40913000e-02	-9.56063000e-03	5.92197000e-03
2.26774000e-02	-3.29393000e-02	2.14246000e-03
3.31142000e-02	-3.98356000e-03	1.99976000e-03
7.82179000e-03	-3.26092000e-02	1.27735000e-02
3.18701000e-02	-2.41246000e-02	1.71322000e-02
-9.51457000e-03	-3.33108000e-02	2.00360000e-03
6.28898000e-03	-3.94894000e-02	1.81004000e-02
3.83150000e-02	-1.12445000e-02	1.43140000e-02
2.65257000e-02	-2.67963000e-02	5.31001000e-03
3.03006000e-02	-2.33432000e-02	1.21689000e-02
3.05348000e-02	1.35276000e-02	1.10854000e-02
3.15135000e-02	3.57457000e-03	1.99985000e-03
2.79854000e-02	1.31288000e-02	2.00074000e-03
-3.93000000e-03	-3.97562000e-02	9.74392000e-03
3.14971000e-02	-8.53506000e-03	1.81001000e-02
2.50991000e-02	-2.91662000e-02	8.19875000e-03
1.88677000e-02	-1.65699000e-02	5.91997000e-03
-4.39625000e-03	-2.77638000e-02	9.28801000e-03
2.27426000e-02	-1.64534000e-02	6.91065000e-03
2.81800000e-02	-2.83626000e-02	1.99994000e-03
1.84188000e-03	-3.74520000e-02	1.28379000e-02
1.84247000e-02	-4.94875000e-03	1.38069000e-02
-5.47119000e-03	-3.05702000e-02	1.80836000e-02
3.74828000e-02	-1.37032000e-02	1.10707000e-02
2.53372000e-02	1.82859000e-03	1.32836000e-02
3.98338000e-02	2.73785000e-03	2.01371000e-03
2.84572000e-02	-2.20110000e-02	5.79002000e-03
3.65322000e-02	-1.62333000e-02	2.70434000e-03
3.28544000e-02	2.01214000e-02	1.99989000e-03
2.94150000e-02	-1.54074000e-02	1.99969000e-03
1.80232000e-02	-1.52608000e-02	9.60390000e-03
3.08910000e-03	-1.77096000e-02	1.24255000e-02
2.97794000e-02	-3.24229000e-03	1.78994000e-02
1.27601000e-02	-2.26955000e-02	1.01172000e-02
2.66557000e-02	-2.44619000e-02	9.55900000e-03
3.29848000e-02	-2.61987000e-03	1.18370000e-02
2.48695000e-02	8.40318000e-04	5.51281000e-03
2.39809000e-02	1.20449000e-02	1.32985000e-02
2.42278000e-02	-2.77482000e-02	2.00182000e-03
2.56804000e-02	-4.02256000e-03	5.18535000e-03
-8.82470000e-03	-3.90032000e-02	1.80994000e-02
2.66709000e-02	-1.61432000e-02	4.87825000e-03
1.98789000e-02	-3.10514000e-02	9.13560000e-03
3.11679000e-02	-2.50555000e-02	2.00042000e-03
2.18816000e-03	-3.01655000e-02	7.21597000e-03
3.43231000e-02	1.24164000e-02	1.81007000e-02
8.49507000e-03	-2.29038000e-02	7.32899000e-03
2.74194000e-02	-1.50925000e-02	1.24054000e-02
2.16905000e-02	3.39542000e-03	5.49729000e-03
2.88319000e-02	-2.76354000e-02	8.46916000e-03
3.10036000e-02	1.46603000e-02	1.78281000e-02
3.21105000e-02	1.87212000e-02	5.67215000e-03
2.24348000e-02	-3.30988000e-02	1.63112000e-02
-5.10680000e-03	-1.89032000e-02	3.50403000e-03
3.60767000e-02	2.32390000e-03	1.81002000e-02
2.53662000e-02	-1.37256000e-02	1.63321000e-02
3.40701000e-02	-2.09278000e-02	1.81001000e-02
1.31214000e-02	-3.77422000e-02	9.53958000e-03
1.39634000e-02	-2.56255000e-02	1.99956000e-03
-8.64450000e-04	-3.71475000e-02	9.90896000e-03
1.16239000e-02	-3.62033000e-02	1.51595000e-02
8.95902000e-03	-3.69197000e-02	5.87447000e-03
3.46288000e-02	9.96604000e-03	5.32797000e-03
1.74954000e-02	-2.43355000e-02	5.60800000e-03
3.92150000e-02	-7.80979000e-03	1.81014000e-02
3.79376000e-02	1.25886000e-02	1.44057000e-02
1.64248000e-02	-2.59575000e-02	1.80996000e-02
2.17615000e-02	-2.75739000e-02	9.72753000e-03
2.65211000e-02	-1.75143000e-03	2.00032000e-03
1.67953000e-02	-3.14937000e-02	1.16431000e-02
3.19629000e-02	-1.75280000e-02	1.81023000e-02
2.04126000e-02	-2.89479000e-02	1.99906000e-03
2.57452000e-02	1.69087000e-02	1.39609000e-02
1.22262000e-02	-2.05339000e-02	1.80994000e-02
3.60289000e-02	1.71829000e-02	1.39737000e-02
3.98116000e-02	3.75508000e-03	1.80666000e-02
2.51184000e-02	-6.49416000e-03	2.09164000e-03
2.49507000e-02	8.20994000e-03	1.27071000e-02
1.11025000e-02	-3.09930000e-02	1.43930000e-02
1.38407000e-02	-1.72532000e-02	1.10622000e-02
2.25768000e-02	-2.45364000e-03	7.26503000e-03
7.07250000e-03	-1.52090000e-02	1.69408000e-02
3.58656000e-02	-3.97576000e-03	1.42617000e-02
3.24774000e-02	-5.29786000e-05	1.48603000e-02
3.42356000e-02	1.83280000e-02	1.81000000e-02
6.30827000e-03	-3.59670000e-02	1.43317000e-02
1.50152000e-02	-3.59731000e-03	1.74452000e-02
3.21677000e-02	2.61756000e-03	8.24904000e-03
3.22751000e-02	7.76874000e-03	1.41978000e-02
3.83636000e-02	6.84233000e-03	5.85855000e-03
2.30047000e-02	-1.65023000e-02	1.46857000e-02
3.00938000e-02	9.56114000e-03	1.13649000e-02
1.68152000e-03	-2.60072000e-02	1.33713000e-02
8.01677000e-03	-2.05967000e-02	2.08030000e-03
-1.44461000e-03	-2.35721000e-02	1.24542000e-02
7.17748000e-03	-2.99724000e-02	1.57108000e-02
2.33777000e-02	-5.03856000e-03	1.46204000e-02
1.79561000e-02	-1.87950000e-02	2.72485000e-03
[...]
POINT_DATA 469
SCALARS Radius double 1
LOOKUP_TABLE default
2.00000000e-03
2.00000000e-03
2.00000000e-03
2.00000000e-03
2.00000000e-03
2.00000000e-03
2.00000000e-03
2.00000000e-03
2.00000000e-03
2.00000000e-03
2.00000000e-03
2.00000000e-03
2.00000000e-03
2.00000000e-03
2.00000000e-03
2.00000000e-03
2.00000000e-03
2.00000000e-03
2.00000000e-03
2.00000000e-03
2.00000000e-03
2.00000000e-03
2.00000000e-03
2.00000000e-03
2.00000000e-03
2.00000000e-03
2.00000000e-03
2.00000000e-03
2.00000000e-03
2.00000000e-03
2.00000000e-03
2.00000000e-03
2.00000000e-03
2.00000000e-03
2.00000000e-03
2.00000000e-03
2.00000000e-03
2.00000000e-03
2.00000000e-03
2.00000000e-03
2.00000000e-03
2.00000000e-03
2.00000000e-03
2.00000000e-03
2.00000000e-03
2.00000000e-03
2.00000000e-03
2.00000000e-03
2.00000000e-03
2.00000000e-03
2.00000000e-03
2.00000000e-03
2.00000000e-03
2.00000000e-03
2.00000000e-03
2.00000000e-03
2.00000000e-03
2.00000000e-03
2.00000000e-03
2.00000000e-03
2.00000000e-03
2.00000000e-03
2.00000000e-03
2.00000000e-03
2.00000000e-03
2.00000000e-03
2.00000000e-03
2.00000000e-03
2.00000000e-03
2.00000000e-03
2.00000000e-03
2.00000000e-03
2.00000000e-03
2.00000000e-03
2.00000000e-03
2.00000000e-03
2.00000000e-03
2.00000000e-03
2.00000000e-03
2.00000000e-03
2.00000000e-03
2.00000000e-03
2.00000000e-03
2.00000000e-03
2.00000000e-03
2.00000000e-03
2.00000000e-03
2.00000000e-03
2.00000000e-03
2.00000000e-03
2.00000000e-03
2.00000000e-03
2.00000000e-03
2.00000000e-03
2.00000000e-03
2.00000000e-03
2.00000000e-03
2.00000000e-03
2.00000000e-03
2.00000000e-03
2.00000000e-03
2.00000000e-03
2.00000000e-03
2.00000000e-03
2.00000000e-03
2.00000000e-03
2.00000000e-03
2.00000000e-03
2.00000000e-03
2.00000000e-03
2.00000000e-03
2.00000000e-03
2.00000000e-03
2.00000000e-03
2.00000000e-03
2.00000000e-03
2.00000000e-03
2.00000000e-03
2.00000000e-03
2.00000000e-03
2.00000000e-03
2.00000000e-03
2.00000000e-03
2.00000000e-03
2.00000000e-03
2.00000000e-03
2.00000000e-03
2.00000000e-03
2.00000000e-03
2.00000000e-03
2.00000000e-03
2.00000000e-03
2.00000000e-03
2.00000000e-03
2.00000000e-03
2.00000000e-03
2.00000000e-03
2.00000000e-03
2.00000000e-03
2.00000000e-03
2.00000000e-03
2.00000000e-03
2.00000000e-03
2.00000000e-03
2.00000000e-03
2.00000000e-03
2.00000000e-03
2.00000000e-03
2.00000000e-03
2.00000000e-03
2.00000000e-03
2.00000000e-03
2.00000000e-03
2.00000000e-03
2.00000000e-03
2.00000000e-03
2.00000000e-03
2.00000000e-03
2.00000000e-03
2.00000000e-03
2.00000000e-03
2.00000000e-03
2.00000000e-03
2.00000000e-03
2.00000000e-03
2.00000000e-03
2.00000000e-03
2.00000000e-03
2.00000000e-03
2.00000000e-03
2.00000000e-03
2.00000000e-03
2.00000000e-03
2.00000000e-03
2.00000000e-03
2.00000000e-03
2.00000000e-03
2.00000000e-03
2.00000000e-03
2.00000000e-03
2.00000000e-03
2.00000000e-03
2.00000000e-03
2.00000000e-03
2.00000000e-03
2.00000000e-03
2.00000000e-03
2.00000000e-03
2.00000000e-03
2.00000000e-03
2.00000000e-03
2.00000000e-03
2.00000000e-03
2.00000000e-03
2.00000000e-03
2.00000000e-03
2.00000000e-03
2.00000000e-03
2.00000000e-03
2.00000000e-03
2.00000000e-03
2.00000000e-03
2.00000000e-03
2.00000000e-03
2.00000000e-03
2.00000000e-03
2.00000000e-03
2.00000000e-03
2.00000000e-03
2.00000000e-03
2.00000000e-03
2.00000000e-03
2.00000000e-03
2.00000000e-03
2.00000000e-03
2.00000000e-03
2.00000000e-03
2.00000000e-03
2.00000000e-03
2.00000000e-03
2.00000000e-03
2.00000000e-03
2.00000000e-03
2.00000000e-03
2.00000000e-03
2.00000000e-03
2.00000000e-03
2.00000000e-03
2.00000000e-03
2.00000000e-03
2.00000000e-03
2.00000000e-03
2.00000000e-03
2.00000000e-03
2.00000000e-03
2.00000000e-03
2.00000000e-03
2.00000000e-03
2.00000000e-03
2.00000000e-03
2.00000000e-03
2.00000000e-03
2.00000000e-03
2.00000000e-03
2.00000000e-03
2.00000000e-03
2.00000000e-03
2.00000000e-03
2.00000000e-03
2.00000000e-03
2.00000000e-03
2.00000000e-03
2.00000000e-03
2.00000000e-03
2.00000000e-03
2.00000000e-03
2.00000000e-03
2.00000000e-03
2.00000000e-03
2.00000000e-03
2.00000000e-03
2.00000000e-03
2.00000000e-03
2.00000000e-03
2.00000000e-03
2.00000000e-03
2.00000000e-03
2.00000000e-03
2.00000000e-03
2.00000000e-03
2.00000000e-03
2.00000000e-03
2.00000000e-03
2.00000000e-03
2.00000000e-03
2.00000000e-03
2.00000000e-03
2.00000000e-03
2.00000000e-03
2.00000000e-03
2.00000000e-03
2.00000000e-03
2.00000000e-03
2.00000000e-03
2.00000000e-03
2.00000000e-03
2.00000000e-03
2.00000000e-03
2.00000000e-03
2.00000000e-03
2.00000000e-03
2.00000000e-03
2.00000000e-03
2.00000000e-03
2.00000000e-03
2.00000000e-03
2.00000000e-03
2.00000000e-03
2.00000000e-03
2.00000000e-03
2.00000000e-03
2.00000000e-03
2.00000000e-03
2.00000000e-03
2.00000000e-03
2.00000000e-03
2.00000000e-03
2.00000000e-03
2.00000000e-03
2.00000000e-03
2.00000000e-03
2.00000000e-03
2.00000000e-03
2.00000000e-03
2.00000000e-03
2.00000000e-03
2.00000000e-03
2.00000000e-03
2.00000000e-03
2.00000000e-03
2.00000000e-03
2.00000000e-03
2.00000000e-03
2.00000000e-03
2.00000000e-03
2.00000000e-03
2.00000000e-03
2.00000000e-03
2.00000000e-03
2.00000000e-03
2.00000000e-03
2.00000000e-03
2.00000000e-03
2.00000000e-03
2.00000000e-03
2.00000000e-03
2.00000000e-03
2.00000000e-03
2.00000000e-03
2.00000000e-03
2.00000000e-03
2.00000000e-03
2.00000000e-03
2.00000000e-03
2.00000000e-03
2.00000000e-03
2.00000000e-03
2.00000000e-03
2.00000000e-03
2.00000000e-03
2.00000000e-03
2.00000000e-03
2.00000000e-03
2.00000000e-03
2.00000000e-03
2.00000000e-03
2.00000000e-03
2.00000000e-03
2.00000000e-03
2.00000000e-03
2.00000000e-03
2.00000000e-03
2.00000000e-03
2.00000000e-03
2.00000000e-03
2.00000000e-03
2.00000000e-03
2.00000000e-03
2.00000000e-03
2.00000000e-03
2.00000000e-03
2.00000000e-03
2.00000000e-03
2.00000000e-03
2.00000000e-03
2.00000000e-03
2.00000000e-03
2.00000000e-03
2.00000000e-03
2.00000000e-03
2.00000000e-03
2.00000000e-03
2.00000000e-03
2.00000000e-03
2.00000000e-03
2.00000000e-03
2.00000000e-03
2.00000000e-03
2.00000000e-03
2.00000000e-03
2.00000000e-03
2.00000000e-03
2.00000000e-03
2.00000000e-03
2.00000000e-03
2.00000000e-03
2.00000000e-03
2.00000000e-03
2.00000000e-03
2.00000000e-03
2.00000000e-03
2.00000000e-03
2.00000000e-03
2.00000000e-03
2.00000000e-03
2.00000000e-03
2.00000000e-03
2.00000000e-03
2.00000000e-03
2.00000000e-03
2.00000000e-03
2.00000000e-03
2.00000000e-03
2.00000000e-03
2.00000000e-03
2.00000000e-03
2.00000000e-03
2.00000000e-03
2.00000000e-03
2.00000000e-03
2.00000000e-03
2.00000000e-03
2.00000000e-03
2.00000000e-03
2.00000000e-03
2.00000000e-03
2.00000000e-03
2.00000000e-03
2.00000000e-03
2.00000000e-03
2.00000000e-03
2.00000000e-03
2.00000000e-03
2.00000000e-03
2.00000000e-03
2.00000000e-03
2.00000000e-03
2.00000000e-03
2.00000000e-03
2.00000000e-03
2.00000000e-03
2.00000000e-03
2.00000000e-03
2.00000000e-03
2.00000000e-03
2.00000000e-03
2.00000000e-03
2.00000000e-03
2.00000000e-03
2.00000000e-03
2.00000000e-03
2.00000000e-03
2.00000000e-03
2.00000000e-03
2.00000000e-03
2.00000000e-03
2.00000000e-03
2.00000000e-03
2.00000000e-03
2.00000000e-03
2.00000000e-03
2.00000000e-03
2.00000000e-03
2.00000000e-03
2.00000000e-03
2.00000000e-03
2.00000000e-03
2.00000000e-03
2.00000000e-03
