# vtk DataFile Version 2.0
Particle data
ASCII
DATASET POLYDATA
POINTS 469 double
1.33552000e-03	-2.07075000e-02	5.47565000e-03
2.47551000e-02	5.09551000e-04	1.51012000e-02
3.31517000e-02	7.15325000e-04	1.99911000e-03
2.92337000e-02	-2.72735000e-02	1.78266000e-02
3.25107000e-02	1.33195000e-03	5.89784000e-03
-1.44435000e-02	-3.72815000e-02	2.00505000e-03
1.17957000e-02	-9.34244000e-03	1.10105000e-02
1.04849000e-02	-2.68954000e-02	1.76604000e-02
2.99623000e-02	1.36005000e-02	1.80989000e-02
3.38588000e-02	-1.38506000e-02	1.06056000e-02
-1.03591000e-02	-3.86285000e-02	1.77651000e-02
1.33699000e-02	-1.14200000e-02	1.80999000e-02
3.22641000e-02	1.97777000e-02	1.43997000e-02
3.96241000e-02	5.41644000e-03	1.99928000e-03
-1.22036000e-02	-3.79938000e-02	1.32108000e-02
2.58238000e-02	-2.19154000e-02	1.24981000e-02
2.25822000e-02	-2.91037000e-02	1.41318000e-02
2.47372000e-02	2.59627000e-03	2.07708000e-03
1.15474000e-02	-3.00560000e-02	1.39277000e-02
-5.89806000e-03	-3.70771000e-02	1.08634000e-02
8.19183000e-04	-3.62250000e-02	2.01158000e-03
2.74676000e-02	-2.48437000e-04	1.80010000e-02
2.92738000e-02	-2.38992000e-02	1.09106000e-02
1.27379000e-02	-1.65842000e-02	1.99888000e-03
2.81769000e-02	-8.58781000e-03	1.99962000e-03
3.40533000e-02	-1.70160000e-02	1.43087000e-02
7.65864000e-03	-3.92017000e-02	1.46704000e-02
2.46488000e-02	7.38339000e-03	1.02640000e-02
2.09941000e-02	-3.40255000e-02	1.69600000e-02
1.98072000e-02	1.68103000e-04	1.40992000e-02
3.03187000e-02	1.40070000e-02	9.29658000e-03
9.05514000e-03	3.35641000e-03	2.00003000e-03
2.87424000e-02	7.43821000e-03	9.22157000e-03
2.58521000e-02	-8.07493000e-03	1.80517000e-02
2.45347000e-02	-1.58987000e-02	9.49792000e-03
3.97069000e-02	4.51678000e-03	1.30950000e-02
-1.08036000e-02	-3.30151000e-02	4.48147000e-03
1.26388000e-02	-3.39473000e-02	8.99143000e-03
2.09393000e-02	1.32152000e-03	1.04207000e-02
2.34884000e-02	-1.49742000e-02	2.20773000e-03
8.78218000e-03	-3.52497000e-02	8.20992000e-03
2.95516000e-02	2.12646000e-02	1.12121000e-02
3.19070000e-02	-7.14494000e-03	1.99966000e-03
1.75255000e-02	-4.52900000e-04	7.88707000e-03
3.10562000e-02	-1.89617000e-02	1.25029000e-02
-1.19274000e-05	-3.48517000e-02	1.06388000e-02
4.27170000e-03	-2.37543000e-02	1.57509000e-02
8.35102000e-03	-1.70464000e-02	9.07706000e-03
9.87775000e-03	-2.02443000e-02	1.09406000e-02
1.85876000e-02	1.34530000e-02	1.80984000e-02
2.97917000e-02	8.64650000e-03	1.28871000e-02
2.16881000e-02	-3.36270000e-03	1.99863000e-03
2.92611000e-02	-2.13815000e-02	1.51323000e-02
1.15419000e-02	-2.58080000e-02	7.45069000e-03
3.23701000e-02	-2.19827000e-02	5.47146000e-03
1.84225000e-02	-3.54635000e-02	1.42549000e-02
3.20152000e-02	-1.70661000e-02	9.10248000e-03
8.01432000e-06	-3.33979000e-02	1.56977000e-02
3.71679000e-02	-1.45403000e-02	1.38984000e-02
3.46794000e-02	-1.18965000e-02	1.80371000e-02
3.99695000e-02	1.20639000e-03	1.74432000e-02
1.81149000e-02	-1.98369000e-02	1.10564000e-02
7.31611000e-04	-2.35345000e-02	1.78189000e-02
2.09363000e-02	-2.98568000e-02	1.00906000e-02
3.88843000e-02	8.95670000e-03	3.70473000e-03
-3.21738000e-03	-3.98604000e-02	6.72920000e-03
3.44287000e-02	-7.31599000e-03	5.09957000e-03
3.08307000e-02	5.76612000e-03	1.54606000e-02
3.60927000e-02	-1.71583000e-02	1.08710000e-02
3.58768000e-02	-1.58690000e-03	1.08679000e-02
9.40452000e-03	-3.88003000e-02	6.47701000e-03
2.76754000e-02	1.17184000e-02	3.23250000e-03
-9.04205000e-03	-3.21665000e-02	1.73174000e-02
5.03593000e-03	-3.64209000e-02	9.38339000e-03
1.91260000e-02	5.29067000e-03	6.17923000e-03
6.41195000e-03	-3.75656000e-02	1.81003000e-02
1.13094000e-02	-3.17117000e-02	5.57839000e-03
2.32751000e-02	1.50639000e-03	7.12916000e-03
2.98453000e-02	2.96560000e-03	2.03872000e-03
9.44166000e-03	-2.30572000e-02	1.80821000e-02
5.87919000e-04	-3.30921000e-02	5.89503000e-03
2.38904000e-02	-1.28807000e-02	6.95339000e-03
3.48576000e-02	-9.86207000e-03	2.04527000e-03
3.78257000e-02	-2.10540000e-03	1.81004000e-02
2.62601000e-02	-1.20978000e-02	2.01582000e-03
-2.87319000e-03	-3.98796000e-02	2.00062000e-03
9.37564000e-03	-1.04604000e-02	7.90209000e-03
2.58389000e-02	-2.58541000e-02	1.31828000e-02
3.08070000e-02	-5.68098000e-03	5.55557000e-03
1.79827000e-02	-2.62868000e-02	6.66259000e-03
2.56535000e-03	-3.65752000e-02	5.93672000e-03
2.41288000e-02	-8.77488000e-04	3.96426000e-03
2.82458000e-02	-1.41179000e-03	8.62098000e-03
9.88256000e-03	-3.86638000e-02	1.06868000e-02
3.47798000e-02	8.36099000e-04	1.81001000e-02
2.42360000e-02	9.97335000e-03	2.17224000e-03
2.50278000e-02	-2.66626000e-02	8.80305000e-03
2.81527000e-02	-1.60549000e-02	1.80859000e-02
1.01935000e-02	-1.37092000e-02	1.49124000e-02
1.98831000e-02	-8.98086000e-03	1.11988000e-02
2.10672000e-02	-2.27913000e-02	2.00002000e-03
2.15465000e-02	-2.20695000e-02	1.10212000e-02
1.86681000e-02	-2.93439000e-02	1.33457000e-02
2.88318000e-02	8.01023000e-03	1.81001000e-02
2.98900000e-02	-2.04521000e-02	8.98037000e-03
5.88032000e-03	-1.95888000e-02	2.00695000e-03
2.50593000e-02	-2.26333000e-02	2.19209000e-03
1.02337000e-02	-2.18471000e-02	2.00039000e-03
3.59729000e-02	-5.31534000e-03	1.99984000e-03
2.94458000e-02	-5.16945000e-03	9.28163000e-03
2.13052000e-02	-2.60241000e-02	4.34332000e-03
2.43749000e-03	-3.71146000e-02	1.81000000e-02
-3.20795000e-03	-3.31494000e-02	1.29669000e-02
2.46823000e-02	-2.78304000e-02	2.22760000e-03
3.35512000e-02	-5.47833000e-03	1.81002000e-02
3.36953000e-02	-1.36885000e-02	1.99931000e-03
1.48139000e-02	-3.71173000e-02	1.00950000e-02
2.51562000e-02	-1.98343000e-02	9.15040000e-03
3.42718000e-02	9.03329000e-03	1.39963000e-02
3.23320000e-02	2.25912000e-02	6.52993000e-03
-2.71990000e-03	-3.00231000e-02	2.04260000e-03
3.52283000e-03	-2.02164000e-02	1.80433000e-02
-4.55280000e-03	-3.97278000e-02	1.64755000e-02
3.52343000e-02	-1.74154000e-03	1.50757000e-02
3.10322000e-02	1.88948000e-02	1.81006000e-02
-4.10824000e-03	-3.67538000e-02	4.35565000e-03
-1.73802000e-02	-3.44318000e-02	5.70436000e-03
3.14872000e-02	4.99469000e-03	1.15353000e-02
1.69652000e-02	-3.24918000e-02	8.23654000e-03
1.51827000e-02	-3.02416000e-02	1.99783000e-03
1.17236000e-02	-3.56890000e-02	5.50901000e-03
3.34170000e-02	1.90176000e-02	5.09895000e-03
2.78091000e-03	-3.18049000e-02	1.81001000e-02
3.74291000e-02	1.36400000e-02	1.35568000e-02
1.54015000e-02	-1.37832000e-02	1.16910000e-02
3.92750000e-02	-5.08802000e-03	5.12312000e-03
3.19413000e-02	7.80953000e-03	5.90216000e-03
-1.42800000e-02	-3.32610000e-02	2.46968000e-03
2.67408000e-02	-1.84182000e-02	1.42058000e-02
1.33453000e-02	-3.36706000e-02	1.72747000e-02
3.52006000e-02	-7.82657000e-03	1.53140000e-02
-4.64262000e-03	-3.35359000e-02	2.03202000e-03
-5.42364000e-03	-3.60041000e-02	1.47092000e-02
1.55045000e-02	-3.68218000e-02	6.16654000e-03
6.10884000e-03	-2.10877000e-02	7.01273000e-03
-6.78114000e-03	-3.94127000e-02	2.71561000e-03
3.30123000e-02	-2.24872000e-02	1.07441000e-02
-1.02242000e-02	-3.68140000e-02	2.00131000e-03
1.48702000e-02	-2.16327000e-02	7.64088000e-03
2.50705000e-02	-1.19964000e-02	1.81016000e-02
-7.69914000e-04	-2.70020000e-02	1.34673000e-02
2.31618000e-02	-1.86881000e-02	1.79376000e-02
-1.92982000e-02	-3.49662000e-02	9.75619000e-03
2.52750000e-03	-3.98782000e-02	1.51532000e-02
2.28507000e-02	-1.68462000e-03	1.22551000e-02
9.26874000e-03	-2.41430000e-02	1.02884000e-02
-2.41998000e-02	-3.18050000e-02	5.53763000e-03
2.87518000e-02	-4.63007000e-03	2.05855000e-03
3.78595000e-02	1.24260000e-02	1.99946000e-03
8.86450000e-04	-2.82310000e-02	2.31291000e-03
3.03703000e-02	1.80421000e-02	7.51458000e-03
-1.98725000e-02	-3.46669000e-02	2.52375000e-03
3.85137000e-02	-1.07744000e-02	1.39707000e-02
1.66847000e-02	-2.88702000e-02	1.81003000e-02
2.90229000e-02	-1.53747000e-02	2.01291000e-03
2.39125000e-02	-5.05442000e-03	1.53847000e-02
2.01472000e-02	-2.60974000e-05	3.95894000e-03
-4.89919000e-03	-2.92430000e-02	6.79250000e-03
2.54643000e-02	-2.85833000e-02	1.81007000e-02
2.24263000e-02	-2.38986000e-02	7.54187000e-03
-1.50422000e-02	-3.69961000e-02	8.82294000e-03
3.78239000e-02	-1.29920000e-02	2.40418000e-03
6.17787000e-03	-2.58252000e-02	1.21893000e-02
6.49464000e-03	-1.44776000e-02	1.33355000e-02
2.33959000e-02	5.30308000e-03	5.87769000e-03
-3.18961000e-03	-2.08929000e-02	7.17283000e-03
2.50697000e-02	1.39966000e-02	1.29956000e-02
3.37458000e-02	1.23026000e-02	1.80899000e-02
5.94076000e-03	-5.84482000e-03	1.80101000e-02
1.46248000e-02	-2.47407000e-02	5.13684000e-03
2.69345000e-02	-2.94702000e-02	1.44890000e-02
1.32205000e-02	-1.89233000e-02	5.20598000e-03
2.19929000e-02	-1.84066000e-03	1.67933000e-02
2.80715000e-02	-2.83429000e-02	6.80673000e-03
2.14543000e-02	-8.65230000e-03	1.56861000e-02
-5.25187000e-03	-2.25209000e-02	3.97531000e-03
1.75718000e-03	-2.25935000e-02	9.03594000e-03
3.32422000e-02	1.88534000e-02	1.06337000e-02
-1.82936000e-03	-3.03507000e-02	1.75327000e-02
1.57935000e-02	-8.52540000e-03	7.73546000e-03
3.09175000e-02	-1.89519000e-02	1.79396000e-02
3.31738000e-02	-1.31192000e-02	1.44922000e-02
3.39558000e-02	-2.10136000e-02	1.43406000e-02
2.19566000e-02	-3.34148000e-02	7.93333000e-03
8.68134000e-03	-2.37905000e-02	5.49047000e-03
1.59790000e-02	-2.49335000e-02	1.80732000e-02
3.02628000e-02	-1.14610000e-02	1.07642000e-02
2.30617000e-02	-2.30969000e-03	8.30687000e-03
1.23364000e-02	-1.28904000e-02	9.24310000e-03
3.70115000e-02	-1.51407000e-02	1.78501000e-02
4.86760000e-03	-3.96434000e-02	1.17743000e-02
-1.28087000e-03	-3.63895000e-02	7.17168000e-03
1.75822000e-02	-2.66181000e-02	1.06281000e-02
3.46719000e-02	1.72319000e-02	1.80729000e-02
3.13123000e-02	-2.47118000e-02	1.43039000e-02
-2.17839000e-03	-3.16988000e-02	9.36006000e-03
9.70886000e-03	-1.76445000e-02	1.39999000e-02
9.82659000e-03	-3.55479000e-02	1.75833000e-02
3.51367000e-02	9.95351000e-03	4.72316000e-03
7.99458000e-03	-3.24261000e-02	1.46015000e-02
3.66199000e-02	-4.87764000e-03	1.30159000e-02
2.96499000e-02	-2.03845000e-02	1.99925000e-03
3.85565000e-02	-1.03252000e-02	5.98214000e-03
2.26259000e-02	-2.10054000e-02	1.47217000e-02
3.73903000e-02	1.38677000e-02	9.56439000e-03
[...]
POINT_DATA 469
SCALARS Radius double 1
LOOKUP_TABLE default
2.00000000e-03
2.00000000e-03
2.00000000e-03
2.00000000e-03
2.00000000e-03
2.00000000e-03
2.00000000e-03
2.00000000e-03
2.00000000e-03
2.00000000e-03
2.00000000e-03
2.00000000e-03
2.00000000e-03
2.00000000e-03
2.00000000e-03
2.00000000e-03
2.00000000e-03
2.00000000e-03
2.00000000e-03
2.00000000e-03
2.00000000e-03
2.00000000e-03
2.00000000e-03
2.00000000e-03
2.00000000e-03
2.00000000e-03
2.00000000e-03
2.00000000e-03
2.00000000e-03
2.00000000e-03
2.00000000e-03
2.00000000e-03
2.00000000e-03
2.00000000e-03
2.00000000e-03
2.00000000e-03
2.00000000e-03
2.00000000e-03
2.00000000e-03
2.00000000e-03
2.00000000e-03
2.00000000e-03
2.00000000e-03
2.00000000e-03
2.00000000e-03
2.00000000e-03
2.00000000e-03
2.00000000e-03
2.00000000e-03
2.00000000e-03
2.00000000e-03
2.00000000e-03
2.00000000e-03
2.00000000e-03
2.00000000e-03
2.00000000e-03
2.00000000e-03
2.00000000e-03
2.00000000e-03
2.00000000e-03
2.00000000e-03
2.00000000e-03
2.00000000e-03
2.00000000e-03
2.00000000e-03
2.00000000e-03
2.00000000e-03
2.00000000e-03
2.00000000e-03
2.00000000e-03
2.00000000e-03
2.00000000e-03
2.00000000e-03
2.00000000e-03
2.00000000e-03
2.00000000e-03
2.00000000e-03
2.00000000e-03
2.00000000e-03
2.00000000e-03
2.00000000e-03
2.00000000e-03
2.00000000e-03
2.00000000e-03
2.00000000e-03
2.00000000e-03
2.00000000e-03
2.00000000e-03
2.00000000e-03
2.00000000e-03
2.00000000e-03
2.00000000e-03
2.00000000e-03
2.00000000e-03
2.00000000e-03
2.00000000e-03
2.00000000e-03
2.00000000e-03
2.00000000e-03
2.00000000e-03
2.00000000e-03
2.00000000e-03
2.00000000e-03
2.00000000e-03
2.00000000e-03
2.00000000e-03
2.00000000e-03
2.00000000e-03
2.00000000e-03
2.00000000e-03
2.00000000e-03
2.00000000e-03
2.00000000e-03
2.00000000e-03
2.00000000e-03
2.00000000e-03
2.00000000e-03
2.00000000e-03
2.00000000e-03
2.00000000e-03
2.00000000e-03
2.00000000e-03
2.00000000e-03
2.00000000e-03
2.00000000e-03
2.00000000e-03
2.00000000e-03
2.00000000e-03
2.00000000e-03
2.00000000e-03
2.00000000e-03
2.00000000e-03
2.00000000e-03
2.00000000e-03
2.00000000e-03
2.00000000e-03
2.00000000e-03
2.00000000e-03
2.00000000e-03
2.00000000e-03
2.00000000e-03
2.00000000e-03
2.00000000e-03
2.00000000e-03
2.00000000e-03
2.00000000e-03
2.00000000e-03
2.00000000e-03
2.00000000e-03
2.00000000e-03
2.00000000e-03
2.00000000e-03
2.00000000e-03
2.00000000e-03
2.00000000e-03
2.00000000e-03
2.00000000e-03
2.00000000e-03
2.00000000e-03
2.00000000e-03
2.00000000e-03
2.00000000e-03
2.00000000e-03
2.00000000e-03
2.00000000e-03
2.00000000e-03
2.00000000e-03
2.00000000e-03
2.00000000e-03
2.00000000e-03
2.00000000e-03
2.00000000e-03
2.00000000e-03
2.00000000e-03
2.00000000e-03
2.00000000e-03
2.00000000e-03
2.00000000e-03
2.00000000e-03
2.00000000e-03
2.00000000e-03
2.00000000e-03
2.00000000e-03
2.00000000e-03
2.00000000e-03
2.00000000e-03
2.00000000e-03
2.00000000e-03
2.00000000e-03
2.00000000e-03
2.00000000e-03
2.00000000e-03
2.00000000e-03
2.00000000e-03
2.00000000e-03
2.00000000e-03
2.00000000e-03
2.00000000e-03
2.00000000e-03
2.00000000e-03
2.00000000e-03
2.00000000e-03
2.00000000e-03
2.00000000e-03
2.00000000e-03
2.00000000e-03
2.00000000e-03
2.00000000e-03
2.00000000e-03
2.00000000e-03
2.00000000e-03
2.00000000e-03
2.00000000e-03
2.00000000e-03
2.00000000e-03
2.00000000e-03
2.00000000e-03
2.00000000e-03
2.00000000e-03
2.00000000e-03
2.00000000e-03
2.00000000e-03
2.00000000e-03
2.00000000e-03
2.00000000e-03
2.00000000e-03
2.00000000e-03
2.00000000e-03
2.00000000e-03
2.00000000e-03
2.00000000e-03
2.00000000e-03
2.00000000e-03
2.00000000e-03
2.00000000e-03
2.00000000e-03
2.00000000e-03
2.00000000e-03
2.00000000e-03
2.00000000e-03
2.00000000e-03
2.00000000e-03
2.00000000e-03
2.00000000e-03
2.00000000e-03
2.00000000e-03
2.00000000e-03
2.00000000e-03
2.00000000e-03
2.00000000e-03
2.00000000e-03
2.00000000e-03
2.00000000e-03
2.00000000e-03
2.00000000e-03
2.00000000e-03
2.00000000e-03
2.00000000e-03
2.00000000e-03
2.00000000e-03
2.00000000e-03
2.00000000e-03
2.00000000e-03
2.00000000e-03
2.00000000e-03
2.00000000e-03
2.00000000e-03
2.00000000e-03
2.00000000e-03
2.00000000e-03
2.00000000e-03
2.00000000e-03
2.00000000e-03
2.00000000e-03
2.00000000e-03
2.00000000e-03
2.00000000e-03
2.00000000e-03
2.00000000e-03
2.00000000e-03
2.00000000e-03
2.00000000e-03
2.00000000e-03
2.00000000e-03
2.00000000e-03
2.00000000e-03
2.00000000e-03
2.00000000e-03
2.00000000e-03
2.00000000e-03
2.00000000e-03
2.00000000e-03
2.00000000e-03
2.00000000e-03
2.00000000e-03
2.00000000e-03
2.00000000e-03
2.00000000e-03
2.00000000e-03
2.00000000e-03
2.00000000e-03
2.00000000e-03
2.00000000e-03
2.00000000e-03
2.00000000e-03
2.00000000e-03
2.00000000e-03
2.00000000e-03
2.00000000e-03
2.00000000e-03
2.00000000e-03
2.00000000e-03
2.00000000e-03
2.00000000e-03
2.00000000e-03
2.00000000e-03
2.00000000e-03
2.00000000e-03
2.00000000e-03
2.00000000e-03
2.00000000e-03
2.00000000e-03
2.00000000e-03
2.00000000e-03
2.00000000e-03
2.00000000e-03
2.00000000e-03
2.00000000e-03
2.00000000e-03
2.00000000e-03
2.00000000e-03
2.00000000e-03
2.00000000e-03
2.00000000e-03
2.00000000e-03
2.00000000e-03
2.00000000e-03
2.00000000e-03
2.00000000e-03
2.00000000e-03
2.00000000e-03
2.00000000e-03
2.00000000e-03
2.00000000e-03
2.00000000e-03
2.00000000e-03
2.00000000e-03
2.00000000e-03
2.00000000e-03
2.00000000e-03
2.00000000e-03
2.00000000e-03
2.00000000e-03
2.00000000e-03
2.00000000e-03
2.00000000e-03
2.00000000e-03
2.00000000e-03
2.00000000e-03
2.00000000e-03
2.00000000e-03
2.00000000e-03
2.00000000e-03
2.00000000e-03
2.00000000e-03
2.00000000e-03
2.00000000e-03
2.00000000e-03
2.00000000e-03
2.00000000e-03
2.00000000e-03
2.00000000e-03
2.00000000e-03
2.00000000e-03
2.00000000e-03
2.00000000e-03
2.00000000e-03
2.00000000e-03
2.00000000e-03
2.00000000e-03
2.00000000e-03
2.00000000e-03
2.00000000e-03
2.00000000e-03
2.00000000e-03
2.00000000e-03
2.00000000e-03
2.00000000e-03
2.00000000e-03
2.00000000e-03
2.00000000e-03
2.00000000e-03
2.00000000e-03
2.00000000e-03
2.00000000e-03
2.00000000e-03
2.00000000e-03
2.00000000e-03
2.00000000e-03
2.00000000e-03
2.00000000e-03
2.00000000e-03
2.00000000e-03
2.00000000e-03
2.00000000e-03
2.00000000e-03
2.00000000e-03
2.00000000e-03
2.00000000e-03
2.00000000e-03
2.00000000e-03
2.00000000e-03
2.00000000e-03
2.00000000e-03
2.00000000e-03
2.00000000e-03
2.00000000e-03
2.00000000e-03
2.00000000e-03
2.00000000e-03
2.00000000e-03
2.00000000e-03
2.00000000e-03
2.00000000e-03
2.00000000e-03
2.00000000e-03
2.00000000e-03
2.00000000e-03
2.00000000e-03
2.00000000e-03
2.00000000e-03
2.00000000e-03
2.00000000e-03
2.00000000e-03
2.00000000e-03
2.00000000e-03
2.00000000e-03
2.00000000e-03
2.00000000e-03
2.00000000e-03
2.00000000e-03
2.00000000e-03
2.00000000e-03
2.00000000e-03
2.00000000e-03
2.00000000e-03
2.00000000e-03
2.00000000e-03
2.00000000e-03
2.00000000e-03
2.00000000e-03
2.00000000e-03
2.00000000e-03
2.00000000e-03
2.00000000e-03
2.00000000e-03
2.00000000e-03
2.00000000e-03
2.00000000e-03
2.00000000e-03
2.00000000e-03
2.00000000e-03
2.00000000e-03
2.00000000e-03
2.00000000e-03
2.00000000e-03
2.00000000e-03
2.00000000e-03
2.00000000e-03
