# vtk DataFile Version 2.0
Particle data
ASCII
DATASET POLYDATA
POINTS 469 double
3.52851000e-02	5.21339000e-03	8.45451000e-03
3.22277000e-02	-5.35752000e-03	1.44431000e-02
2.63285000e-02	-1.52987000e-02	5.94361000e-03
-3.45136000e-03	-3.14555000e-02	1.05854000e-02
2.62202000e-02	-6.51694000e-03	2.56212000e-03
3.87550000e-02	9.24007000e-03	2.81683000e-03
3.26733000e-02	3.11317000e-03	1.21088000e-02
8.07170000e-03	-2.31058000e-02	1.80852000e-02
3.37682000e-02	-1.45444000e-02	1.81005000e-02
4.54294000e-03	-3.75901000e-02	1.81005000e-02
3.68135000e-02	1.49488000e-02	1.77637000e-02
3.13263000e-02	-3.24080000e-03	1.81005000e-02
2.97227000e-02	-2.67221000e-02	1.21541000e-02
2.42528000e-02	-1.29415000e-02	3.32233000e-03
3.81823000e-02	1.10935000e-02	1.45183000e-02
-1.53241000e-03	-3.99344000e-02	1.06058000e-02
4.61784000e-03	-2.48182000e-02	1.00426000e-02
3.49177000e-02	-8.84179000e-03	1.99979000e-03
4.07836000e-03	-2.71198000e-02	1.43740000e-02
3.09957000e-02	1.18098000e-02	1.10509000e-02
2.61239000e-02	9.54656000e-03	2.00624000e-03
3.14757000e-02	-1.95977000e-02	1.80852000e-02
-9.94678000e-03	-3.87326000e-02	2.00221000e-03
1.77760000e-02	-1.41240000e-02	2.00002000e-03
2.15336000e-02	-1.55568000e-02	1.99865000e-03
8.64647000e-03	-3.50634000e-02	8.68318000e-03
1.29823000e-02	6.48836000e-03	1.13941000e-02
3.40527000e-02	-1.28317000e-02	1.37390000e-02
-5.49033000e-03	-3.03207000e-02	7.31796000e-03
1.33440000e-02	-1.12151000e-02	1.43984000e-02
3.13404000e-02	-1.25234000e-02	1.02129000e-02
3.95222000e-02	-6.07750000e-03	1.99990000e-03
3.50095000e-02	-6.94422000e-03	5.66593000e-03
2.10805000e-02	-2.05002000e-02	1.81006000e-02
1.74490000e-02	-3.59465000e-02	1.10090000e-02
2.91503000e-02	-1.63514000e-02	1.14767000e-02
3.82750000e-02	9.96207000e-03	6.72096000e-03
3.60609000e-04	-1.04574000e-02	1.09952000e-02
3.20196000e-02	-7.28227000e-04	1.12100000e-02
2.07723000e-02	-1.14714000e-02	2.01027000e-03
6.85456000e-03	-8.32502000e-03	7.09154000e-03
3.95654000e-02	-5.77302000e-03	1.45690000e-02
1.53044000e-02	-3.69319000e-02	2.50968000e-03
2.12828000e-02	-2.37601000e-03	1.54400000e-02
1.27305000e-02	-2.64272000e-02	1.67912000e-02
2.38253000e-02	7.05206000e-03	1.15946000e-02
2.23948000e-02	5.32159000e-03	1.49049000e-02
1.30930000e-02	-6.86282000e-03	7.59336000e-03
8.66399000e-03	-1.93709000e-02	1.18012000e-02
2.78836000e-02	2.77268000e-03	1.75095000e-02
9.15163000e-03	-1.30765000e-02	2.14925000e-03
1.28034000e-02	-1.91154000e-02	8.16695000e-03
-9.29135000e-03	-2.98584000e-02	1.33044000e-02
9.51245000e-03	-1.72969000e-02	6.56391000e-03
3.30457000e-03	-3.63306000e-02	1.06903000e-02
-2.33767000e-03	-2.14830000e-02	1.51065000e-02
2.45305000e-03	-3.98735000e-02	9.04584000e-03
2.44494000e-02	8.77456000e-03	1.52134000e-02
1.79805000e-02	-3.17487000e-02	1.43871000e-02
1.18421000e-02	-3.00323000e-02	1.52816000e-02
1.98799000e-02	-3.05329000e-02	1.79887000e-02
2.00719000e-02	-2.25451000e-02	1.02958000e-02
2.01197000e-02	-8.73766000e-03	1.74616000e-02
-7.88363000e-03	-3.62917000e-02	8.94833000e-03
2.95799000e-02	-1.80309000e-02	4.54292000e-03
3.16478000e-02	1.83562000e-02	6.82240000e-03
1.11857000e-02	-3.83920000e-02	3.23265000e-03
3.12399000e-02	-7.23867000e-03	1.81011000e-02
1.15622000e-02	-3.46802000e-02	5.97170000e-03
2.73969000e-02	-2.90575000e-02	9.88794000e-03
1.43681000e-02	2.49545000e-03	3.69061000e-03
3.31703000e-02	-1.86645000e-02	1.99912000e-03
3.26764000e-02	7.47898000e-03	1.78772000e-02
1.71969000e-02	3.68612000e-03	8.03943000e-03
3.98317000e-02	-1.36956000e-03	6.11879000e-03
1.76515000e-02	8.92565000e-03	1.47539000e-02
6.20725000e-03	-1.40250000e-02	8.68641000e-03
2.83325000e-02	8.53242000e-04	1.03197000e-02
2.65013000e-02	-2.99301000e-02	1.80996000e-02
-2.85814000e-03	-3.82916000e-02	1.81010000e-02
2.18628000e-02	2.98178000e-03	6.44473000e-03
2.21862000e-02	-2.21267000e-02	6.69318000e-03
1.89597000e-02	-2.37054000e-02	1.99934000e-03
1.56250000e-02	-2.39982000e-02	1.81004000e-02
1.89429000e-02	-2.76838000e-02	2.40831000e-03
3.04226000e-02	1.63384000e-02	2.01034000e-03
3.70369000e-02	-2.22353000e-03	1.45258000e-02
-6.53816000e-03	-3.94223000e-02	1.10516000e-02
2.43226000e-02	-2.76468000e-02	6.42356000e-03
8.59827000e-03	-3.27330000e-02	4.12233000e-03
2.06880000e-02	6.09406000e-03	4.13617000e-03
2.92300000e-02	3.77013000e-03	2.00374000e-03
3.31445000e-02	-1.78836000e-02	6.45913000e-03
1.36433000e-02	5.59088000e-03	6.28655000e-03
2.83189000e-02	-1.18822000e-02	6.57903000e-03
3.64194000e-02	-1.63983000e-02	8.22523000e-03
-8.70970000e-03	-3.86712000e-02	5.82497000e-03
9.51518000e-03	-3.51879000e-02	1.25851000e-02
2.24754000e-02	-1.39712000e-02	1.81001000e-02
2.41774000e-02	-1.21957000e-02	7.26179000e-03
7.82007000e-03	-3.05004000e-02	7.80489000e-03
9.66878000e-03	-3.14306000e-02	1.12273000e-02
-1.27224000e-02	-3.38304000e-02	1.71289000e-02
2.98596000e-02	-2.65842000e-02	1.72843000e-02
1.17749000e-02	-3.09504000e-02	7.40068000e-03
1.65104000e-02	-6.61264000e-03	2.58548000e-03
1.01867000e-02	-2.26882000e-02	5.38609000e-03
8.38355000e-03	-2.66672000e-02	6.81190000e-03
8.12913000e-03	-3.61101000e-02	2.03066000e-03
2.70004000e-02	-3.98767000e-03	5.55863000e-03
1.21969000e-03	-3.72000000e-02	2.00005000e-03
2.40168000e-02	1.15259000e-02	1.80985000e-02
2.08180000e-02	2.51801000e-03	1.03024000e-02
-3.62077000e-03	-3.17373000e-02	2.15076000e-03
2.22796000e-02	-2.48608000e-02	1.44949000e-02
1.28771000e-02	-3.07768000e-02	1.99947000e-03
5.29777000e-03	-6.92892000e-03	1.05064000e-02
1.55709000e-03	-3.99077000e-02	4.92691000e-03
2.87644000e-02	-9.47790000e-03	1.05360000e-02
3.95967000e-02	-4.98506000e-03	7.81085000e-03
3.05672000e-02	8.35443000e-03	1.99973000e-03
1.78909000e-02	-1.62924000e-02	1.59485000e-02
3.26992000e-02	1.54559000e-02	1.81001000e-02
2.44768000e-02	-3.16061000e-02	5.88695000e-03
3.23533000e-02	-2.35006000e-02	1.80963000e-02
3.08734000e-02	1.46271000e-02	5.60122000e-03
3.93005000e-02	5.84414000e-03	6.08231000e-03
3.19332000e-02	-1.38293000e-03	7.26596000e-03
1.46166000e-03	-1.68850000e-02	1.09427000e-02
1.25359000e-02	-6.99660000e-03	2.00094000e-03
6.87223000e-03	-1.18943000e-02	5.28114000e-03
3.37300000e-02	-2.14708000e-02	4.79133000e-03
2.13334000e-02	7.48070000e-03	1.81001000e-02
3.60106000e-02	-7.20835000e-03	1.34306000e-02
1.80851000e-02	-1.43874000e-02	9.12807000e-03
2.13574000e-02	-3.36983000e-02	1.34822000e-02
3.15625000e-02	-1.12145000e-02	3.91367000e-03
3.57051000e-02	6.50177000e-03	1.99979000e-03
1.59152000e-02	-1.69552000e-02	1.21755000e-02
1.14461000e-02	-7.04415000e-03	1.43590000e-02
1.88641000e-02	-2.75142000e-02	1.55732000e-02
3.06437000e-02	1.23488000e-02	2.18749000e-03
2.88406000e-02	9.87401000e-03	1.40254000e-02
-9.83918000e-04	-1.45074000e-02	4.77112000e-03
3.06530000e-02	4.59364000e-03	8.99027000e-03
3.41069000e-02	1.53112000e-02	3.18171000e-03
-5.96755000e-03	-3.95372000e-02	2.00830000e-03
3.72045000e-02	1.29035000e-02	2.40335000e-03
1.73590000e-02	-1.85742000e-02	8.57918000e-03
7.06487000e-03	-3.26381000e-02	1.46728000e-02
2.58187000e-02	3.95160000e-03	1.00417000e-02
1.37137000e-02	-2.34977000e-02	7.81029000e-03
3.96882000e-02	3.90374000e-03	1.17113000e-02
2.30943000e-02	1.18129000e-02	1.29902000e-02
4.50486000e-03	-1.83935000e-02	8.72015000e-03
-4.85929000e-03	-3.34682000e-02	1.37524000e-02
3.99110000e-02	2.25392000e-03	4.42853000e-03
2.21834000e-02	-9.37313000e-03	5.24907000e-03
2.73165000e-02	-2.92033000e-02	1.42283000e-02
2.53922000e-02	3.96286000e-04	2.06257000e-03
3.37158000e-02	-1.36316000e-02	7.18811000e-03
3.95795000e-02	5.41343000e-03	1.99918000e-03
2.24443000e-02	-3.03805000e-02	9.24307000e-03
-6.10832000e-03	-3.10765000e-02	1.67509000e-02
1.78787000e-02	-1.98552000e-02	2.00220000e-03
2.88030000e-02	-3.74546000e-03	1.31494000e-02
1.05404000e-02	-1.32751000e-02	9.29169000e-03
3.17764000e-02	9.80299000e-03	5.93526000e-03
-6.46663000e-03	-3.54406000e-02	1.77053000e-02
-3.84680000e-03	-3.97717000e-02	6.48766000e-03
3.88890000e-02	7.31377000e-03	9.77959000e-03
1.26473000e-02	-3.41550000e-02	1.01870000e-02
1.59571000e-02	-6.81340000e-03	1.06533000e-02
3.31151000e-02	-1.49473000e-03	1.49789000e-02
2.82763000e-02	3.74148000e-03	5.88818000e-03
3.58007000e-02	6.21903000e-04	1.20016000e-02
3.86480000e-02	-1.02829000e-02	2.04399000e-03
2.75303000e-02	-2.34379000e-02	1.80963000e-02
3.99582000e-02	8.46055000e-05	1.80645000e-02
1.74992000e-02	-2.23398000e-02	7.23934000e-03
-1.15604000e-03	-2.86277000e-02	5.86791000e-03
2.12518000e-02	-2.55817000e-02	4.90737000e-03
2.71159000e-02	-1.10879000e-03	1.80895000e-02
-1.41997000e-02	-3.73187000e-02	1.31818000e-02
2.38569000e-02	-1.88904000e-02	1.17047000e-02
3.98325000e-02	4.66875000e-04	9.67144000e-03
3.32651000e-02	9.74445000e-03	1.36168000e-02
3.83293000e-02	-1.13784000e-02	1.44565000e-02
2.25808000e-02	3.14434000e-04	1.81000000e-02
3.99269000e-02	-2.09822000e-03	2.00002000e-03
-1.61832000e-05	-3.66510000e-02	1.58154000e-02
1.93137000e-02	-2.21915000e-02	1.42171000e-02
-1.00982000e-02	-3.86516000e-02	1.49703000e-02
-1.51664000e-02	-3.32509000e-02	1.30689000e-02
2.12694000e-02	-1.48817000e-02	5.93055000e-03
8.08409000e-03	-1.55616000e-02	1.79715000e-02
2.54525000e-02	-2.23611000e-02	1.05223000e-02
3.68811000e-03	-2.87289000e-02	1.00564000e-02
2.21854000e-02	-4.76702000e-03	1.01552000e-02
7.72575000e-03	-3.51693000e-02	1.80958000e-02
2.20656000e-02	1.12007000e-02	9.06815000e-03
2.24982000e-02	7.37659000e-03	7.58507000e-03
-6.77431000e-03	-3.94117000e-02	1.80774000e-02
3.24413000e-02	-2.32571000e-02	1.17565000e-02
5.78411000e-03	-3.64223000e-02	1.44773000e-02
1.91248000e-02	9.31053000e-05	7.10933000e-03
6.33112000e-03	-1.88966000e-02	1.58749000e-02
1.12868000e-02	6.88975000e-04	1.39427000e-02
3.03293000e-02	-1.36847000e-02	1.49202000e-02
6.87776000e-03	-1.58468000e-02	1.24325000e-02
1.79896000e-02	-3.57050000e-02	1.49735000e-02
9.12866000e-03	-2.93762000e-02	2.00933000e-03
1.43194000e-02	-3.35419000e-02	1.39375000e-02
1.53765000e-02	-2.86785000e-02	1.39962000e-02
3.29916000e-02	-9.22685000e-03	1.51061000e-02
2.58772000e-02	-1.63998000e-02	2.12376000e-03
[...]
POINT_DATA 469
SCALARS Radius double 1
LOOKUP_TABLE default
2.00000000e-03
2.00000000e-03
2.00000000e-03
2.00000000e-03
2.00000000e-03
2.00000000e-03
2.00000000e-03
2.00000000e-03
2.00000000e-03
2.00000000e-03
2.00000000e-03
2.00000000e-03
2.00000000e-03
2.00000000e-03
2.00000000e-03
2.00000000e-03
2.00000000e-03
2.00000000e-03
2.00000000e-03
2.00000000e-03
2.00000000e-03
2.00000000e-03
2.00000000e-03
2.00000000e-03
2.00000000e-03
2.00000000e-03
2.00000000e-03
2.00000000e-03
2.00000000e-03
2.00000000e-03
2.00000000e-03
2.00000000e-03
2.00000000e-03
2.00000000e-03
2.00000000e-03
2.00000000e-03
2.00000000e-03
2.00000000e-03
2.00000000e-03
2.00000000e-03
2.00000000e-03
2.00000000e-03
2.00000000e-03
2.00000000e-03
2.00000000e-03
2.00000000e-03
2.00000000e-03
2.00000000e-03
2.00000000e-03
2.00000000e-03
2.00000000e-03
2.00000000e-03
2.00000000e-03
2.00000000e-03
2.00000000e-03
2.00000000e-03
2.00000000e-03
2.00000000e-03
2.00000000e-03
2.00000000e-03
2.00000000e-03
2.00000000e-03
2.00000000e-03
2.00000000e-03
2.00000000e-03
2.00000000e-03
2.00000000e-03
2.00000000e-03
2.00000000e-03
2.00000000e-03
2.00000000e-03
2.00000000e-03
2.00000000e-03
2.00000000e-03
2.00000000e-03
2.00000000e-03
2.00000000e-03
2.00000000e-03
2.00000000e-03
2.00000000e-03
2.00000000e-03
2.00000000e-03
2.00000000e-03
2.00000000e-03
2.00000000e-03
2.00000000e-03
2.00000000e-03
2.00000000e-03
2.00000000e-03
2.00000000e-03
2.00000000e-03
2.00000000e-03
2.00000000e-03
2.00000000e-03
2.00000000e-03
2.00000000e-03
2.00000000e-03
2.00000000e-03
2.00000000e-03
2.00000000e-03
2.00000000e-03
2.00000000e-03
2.00000000e-03
2.00000000e-03
2.00000000e-03
2.00000000e-03
2.00000000e-03
2.00000000e-03
2.00000000e-03
2.00000000e-03
2.00000000e-03
2.00000000e-03
2.00000000e-03
2.00000000e-03
2.00000000e-03
2.00000000e-03
2.00000000e-03
2.00000000e-03
2.00000000e-03
2.00000000e-03
2.00000000e-03
2.00000000e-03
2.00000000e-03
2.00000000e-03
2.00000000e-03
2.00000000e-03
2.00000000e-03
2.00000000e-03
2.00000000e-03
2.00000000e-03
2.00000000e-03
2.00000000e-03
2.00000000e-03
2.00000000e-03
2.00000000e-03
2.00000000e-03
2.00000000e-03
2.00000000e-03
2.00000000e-03
2.00000000e-03
2.00000000e-03
2.00000000e-03
2.00000000e-03
2.00000000e-03
2.00000000e-03
2.00000000e-03
2.00000000e-03
2.00000000e-03
2.00000000e-03
2.00000000e-03
2.00000000e-03
2.00000000e-03
2.00000000e-03
2.00000000e-03
2.00000000e-03
2.00000000e-03
2.00000000e-03
2.00000000e-03
2.00000000e-03
2.00000000e-03
2.00000000e-03
2.00000000e-03
2.00000000e-03
2.00000000e-03
2.00000000e-03
2.00000000e-03
2.00000000e-03
2.00000000e-03
2.00000000e-03
2.00000000e-03
2.00000000e-03
2.00000000e-03
2.00000000e-03
2.00000000e-03
2.00000000e-03
2.00000000e-03
2.00000000e-03
2.00000000e-03
2.00000000e-03
2.00000000e-03
2.00000000e-03
2.00000000e-03
2.00000000e-03
2.00000000e-03
2.00000000e-03
2.00000000e-03
2.00000000e-03
2.00000000e-03
2.00000000e-03
2.00000000e-03
2.00000000e-03
2.00000000e-03
2.00000000e-03
2.00000000e-03
2.00000000e-03
2.00000000e-03
2.00000000e-03
2.00000000e-03
2.00000000e-03
2.00000000e-03
2.00000000e-03
2.00000000e-03
2.00000000e-03
2.00000000e-03
2.00000000e-03
2.00000000e-03
2.00000000e-03
2.00000000e-03
2.00000000e-03
2.00000000e-03
2.00000000e-03
2.00000000e-03
2.00000000e-03
2.00000000e-03
2.00000000e-03
2.00000000e-03
2.00000000e-03
2.00000000e-03
2.00000000e-03
2.00000000e-03
2.00000000e-03
2.00000000e-03
2.00000000e-03
2.00000000e-03
2.00000000e-03
2.00000000e-03
2.00000000e-03
2.00000000e-03
2.00000000e-03
2.00000000e-03
2.00000000e-03
2.00000000e-03
2.00000000e-03
2.00000000e-03
2.00000000e-03
2.00000000e-03
2.00000000e-03
2.00000000e-03
2.00000000e-03
2.00000000e-03
2.00000000e-03
2.00000000e-03
2.00000000e-03
2.00000000e-03
2.00000000e-03
2.00000000e-03
2.00000000e-03
2.00000000e-03
2.00000000e-03
2.00000000e-03
2.00000000e-03
2.00000000e-03
2.00000000e-03
2.00000000e-03
2.00000000e-03
2.00000000e-03
2.00000000e-03
2.00000000e-03
2.00000000e-03
2.00000000e-03
2.00000000e-03
2.00000000e-03
2.00000000e-03
2.00000000e-03
2.00000000e-03
2.00000000e-03
2.00000000e-03
2.00000000e-03
2.00000000e-03
2.00000000e-03
2.00000000e-03
2.00000000e-03
2.00000000e-03
2.00000000e-03
2.00000000e-03
2.00000000e-03
2.00000000e-03
2.00000000e-03
2.00000000e-03
2.00000000e-03
2.00000000e-03
2.00000000e-03
2.00000000e-03
2.00000000e-03
2.00000000e-03
2.00000000e-03
2.00000000e-03
2.00000000e-03
2.00000000e-03
2.00000000e-03
2.00000000e-03
2.00000000e-03
2.00000000e-03
2.00000000e-03
2.00000000e-03
2.00000000e-03
2.00000000e-03
2.00000000e-03
2.00000000e-03
2.00000000e-03
2.00000000e-03
2.00000000e-03
2.00000000e-03
2.00000000e-03
2.00000000e-03
2.00000000e-03
2.00000000e-03
2.00000000e-03
2.00000000e-03
2.00000000e-03
2.00000000e-03
2.00000000e-03
2.00000000e-03
2.00000000e-03
2.00000000e-03
2.00000000e-03
2.00000000e-03
2.00000000e-03
2.00000000e-03
2.00000000e-03
2.00000000e-03
2.00000000e-03
2.00000000e-03
2.00000000e-03
2.00000000e-03
2.00000000e-03
2.00000000e-03
2.00000000e-03
2.00000000e-03
2.00000000e-03
2.00000000e-03
2.00000000e-03
2.00000000e-03
2.00000000e-03
2.00000000e-03
2.00000000e-03
2.00000000e-03
2.00000000e-03
2.00000000e-03
2.00000000e-03
2.00000000e-03
2.00000000e-03
2.00000000e-03
2.00000000e-03
2.00000000e-03
2.00000000e-03
2.00000000e-03
2.00000000e-03
2.00000000e-03
2.00000000e-03
2.00000000e-03
2.00000000e-03
2.00000000e-03
2.00000000e-03
2.00000000e-03
2.00000000e-03
2.00000000e-03
2.00000000e-03
2.00000000e-03
2.00000000e-03
2.00000000e-03
2.00000000e-03
2.00000000e-03
2.00000000e-03
2.00000000e-03
2.00000000e-03
2.00000000e-03
2.00000000e-03
2.00000000e-03
2.00000000e-03
2.00000000e-03
2.00000000e-03
2.00000000e-03
2.00000000e-03
2.00000000e-03
2.00000000e-03
2.00000000e-03
2.00000000e-03
2.00000000e-03
2.00000000e-03
2.00000000e-03
2.00000000e-03
2.00000000e-03
2.00000000e-03
2.00000000e-03
2.00000000e-03
2.00000000e-03
2.00000000e-03
2.00000000e-03
2.00000000e-03
2.00000000e-03
2.00000000e-03
2.00000000e-03
2.00000000e-03
2.00000000e-03
2.00000000e-03
2.00000000e-03
2.00000000e-03
2.00000000e-03
2.00000000e-03
2.00000000e-03
2.00000000e-03
2.00000000e-03
2.00000000e-03
2.00000000e-03
2.00000000e-03
2.00000000e-03
2.00000000e-03
2.00000000e-03
2.00000000e-03
2.00000000e-03
2.00000000e-03
2.00000000e-03
2.00000000e-03
2.00000000e-03
2.00000000e-03
2.00000000e-03
2.00000000e-03
2.00000000e-03
2.00000000e-03
2.00000000e-03
2.00000000e-03
2.00000000e-03
2.00000000e-03
2.00000000e-03
2.00000000e-03
2.00000000e-03
2.00000000e-03
2.00000000e-03
2.00000000e-03
2.00000000e-03
2.00000000e-03
2.00000000e-03
2.00000000e-03
2.00000000e-03
2.00000000e-03
2.00000000e-03
2.00000000e-03
2.00000000e-03
2.00000000e-03
2.00000000e-03
2.00000000e-03
2.00000000e-03
2.00000000e-03
2.00000000e-03
2.00000000e-03
2.00000000e-03
2.00000000e-03
2.00000000e-03
2.00000000e-03
2.00000000e-03
2.00000000e-03
2.00000000e-03
2.00000000e-03
2.00000000e-03
2.00000000e-03
2.00000000e-03
2.00000000e-03
2.00000000e-03
2.00000000e-03
2.00000000e-03
2.00000000e-03
2.00000000e-03
2.00000000e-03
2.00000000e-03
2.00000000e-03
2.00000000e-03
2.00000000e-03
2.00000000e-03
