# vtk DataFile Version 2.0
Particle data
ASCII
DATASET POLYDATA
POINTS 469 double
1.83196000e-03	-3.56196000e-02	8.76828000e-03
1.89747000e-02	-3.94617000e-04	1.13002000e-02
2.82704000e-02	1.23503000e-02	2.00010000e-03
3.73225000e-02	-1.43641000e-02	1.79690000e-02
2.65788000e-02	9.41618000e-03	5.15037000e-03
3.50376000e-03	-3.98296000e-02	2.42451000e-03
1.17918000e-03	-3.31506000e-02	1.18537000e-02
2.04942000e-02	-2.11669000e-02	1.76325000e-02
1.20398000e-02	3.52055000e-03	1.66018000e-02
3.66550000e-02	8.36799000e-04	1.09224000e-02
7.96547000e-03	-3.91877000e-02	1.78339000e-02
4.69539000e-03	-2.28390000e-02	1.80115000e-02
8.90117000e-03	-9.43360000e-03	1.50143000e-02
3.38262000e-02	1.85394000e-02	2.08437000e-03
6.25837000e-03	-3.94387000e-02	1.42234000e-02
3.19611000e-02	-1.02279000e-02	1.21442000e-02
3.24190000e-02	-1.71150000e-02	1.42673000e-02
1.55060000e-02	-1.24533000e-04	3.70394000e-03
2.23386000e-02	-2.29033000e-02	1.40703000e-02
1.15533000e-02	-3.61732000e-02	1.10418000e-02
1.53600000e-02	-3.31193000e-02	2.00591000e-03
1.67143000e-02	4.34608000e-03	1.80970000e-02
3.58355000e-02	-9.85021000e-03	1.12267000e-02
1.55331000e-02	-1.73065000e-02	2.04560000e-03
2.87155000e-02	3.17166000e-03	2.00032000e-03
3.74240000e-02	-3.13531000e-03	1.47162000e-02
2.39133000e-02	-3.20289000e-02	1.44385000e-02
3.47788000e-03	-2.11626000e-02	1.37421000e-02
3.37759000e-02	-2.13774000e-02	1.70126000e-02
1.57676000e-02	-1.44913000e-02	1.45641000e-02
1.42262000e-02	-1.15454000e-03	1.48882000e-02
-6.74975000e-03	-3.77233000e-02	2.00418000e-03
9.69934000e-03	-1.31008000e-02	7.35732000e-03
2.25090000e-02	-9.93880000e-04	1.74037000e-02
2.79640000e-02	-4.78565000e-03	9.17250000e-03
3.28275000e-02	1.62713000e-02	1.11812000e-02
3.56035000e-03	-3.76041000e-02	5.75565000e-03
2.57567000e-02	-2.56085000e-02	9.36037000e-03
9.06973000e-03	-1.99448000e-02	1.06388000e-02
2.60005000e-02	-4.26047000e-03	2.42021000e-03
2.29675000e-02	-2.81561000e-02	8.03162000e-03
-6.37467000e-04	-2.22752000e-02	1.49582000e-02
3.19720000e-02	5.49327000e-03	2.02263000e-03
7.33816000e-03	-2.26639000e-02	1.50059000e-02
3.56654000e-02	-6.44061000e-03	1.33099000e-02
1.61067000e-02	-3.26287000e-02	1.08495000e-02
1.27426000e-02	-2.66250000e-02	1.37828000e-02
1.11844000e-02	-2.74523000e-02	5.65771000e-03
1.64517000e-02	-1.70737000e-02	1.15867000e-02
2.70281000e-03	-2.96972000e-02	1.80524000e-02
1.52287000e-02	-9.69151000e-03	2.81982000e-03
1.69125000e-02	-3.62294000e-03	2.00894000e-03
3.45958000e-02	-1.18688000e-02	1.64411000e-02
2.13874000e-02	-1.98249000e-02	8.06716000e-03
3.94149000e-02	-6.40415000e-03	4.95871000e-03
3.20066000e-02	-2.39002000e-02	1.42181000e-02
3.59453000e-02	-2.69290000e-03	9.18191000e-03
1.43837000e-02	-3.00633000e-02	1.49997000e-02
3.99561000e-02	1.17515000e-03	1.41654000e-02
3.65564000e-02	2.39892000e-03	1.72315000e-02
3.59681000e-02	1.64211000e-02	1.64934000e-02
2.33922000e-02	-1.18029000e-02	1.15006000e-02
8.39623000e-03	-2.64284000e-02	1.81003000e-02
3.14805000e-02	-1.87385000e-02	1.00462000e-02
2.96013000e-02	1.89065000e-02	3.64689000e-03
1.48066000e-02	-3.71228000e-02	6.83211000e-03
3.39612000e-02	4.95044000e-03	5.48284000e-03
2.05509000e-02	7.35321000e-03	1.65247000e-02
3.98626000e-02	-1.73404000e-03	1.14221000e-02
3.28018000e-02	1.02618000e-02	1.04208000e-02
2.56375000e-02	-3.06122000e-02	6.34774000e-03
1.49820000e-02	9.18233000e-03	2.00497000e-03
5.34512000e-03	-3.37481000e-02	1.81002000e-02
2.02675000e-02	-3.10590000e-02	8.56258000e-03
-1.62382000e-03	-3.26961000e-02	7.33349000e-03
2.23963000e-02	-3.25664000e-02	1.81003000e-02
2.38342000e-02	-2.33776000e-02	5.75443000e-03
1.28567000e-02	-1.48624000e-02	4.06202000e-03
2.29385000e-02	8.35434000e-03	3.23509000e-03
1.81232000e-02	-1.77551000e-02	1.81016000e-02
1.46368000e-02	-2.95547000e-02	5.51897000e-03
2.48902000e-02	-4.49635000e-03	6.62934000e-03
3.56879000e-02	4.01269000e-03	1.99941000e-03
3.52025000e-02	1.25715000e-02	1.72626000e-02
2.78258000e-02	-7.27247000e-04	1.99987000e-03
1.49426000e-02	-3.70959000e-02	1.99933000e-03
-4.91223000e-03	-3.29572000e-02	1.04685000e-02
3.39413000e-02	-1.36186000e-02	1.29050000e-02
2.95725000e-02	5.01264000e-03	5.44621000e-03
2.72738000e-02	-1.58360000e-02	6.72149000e-03
1.79147000e-02	-3.20577000e-02	5.48638000e-03
1.37122000e-02	-4.95555000e-03	6.14779000e-03
2.12906000e-02	2.19180000e-03	7.61248000e-03
2.48522000e-02	-3.12296000e-02	1.02209000e-02
3.02662000e-02	1.14074000e-02	1.78963000e-02
4.08975000e-03	-1.18497000e-02	6.12026000e-03
3.33576000e-02	-1.41706000e-02	8.96551000e-03
3.23728000e-02	-3.03789000e-03	1.81004000e-02
1.27267000e-02	-1.97187000e-02	1.81004000e-02
1.94346000e-02	-9.23869000e-03	1.32894000e-02
2.80042000e-02	-1.19859000e-02	1.99970000e-03
2.82444000e-02	-1.13755000e-02	1.12149000e-02
2.92449000e-02	-1.93497000e-02	1.33059000e-02
1.61461000e-02	8.32132000e-03	1.80796000e-02
3.50463000e-02	-6.58722000e-03	9.05421000e-03
1.40407000e-02	-2.29448000e-02	2.00000000e-03
3.18072000e-02	-1.07604000e-02	2.18013000e-03
1.95521000e-02	-1.78941000e-02	2.00023000e-03
3.51120000e-02	7.97056000e-03	2.01035000e-03
2.71755000e-02	5.16245000e-03	8.64475000e-03
3.01442000e-02	-1.44617000e-02	4.29882000e-03
1.83863000e-02	-3.22752000e-02	1.81002000e-02
1.23251000e-02	-3.19954000e-02	1.19904000e-02
3.37180000e-02	-1.45973000e-02	2.18540000e-03
3.26101000e-02	8.17287000e-03	1.81000000e-02
3.60342000e-02	-6.19626000e-05	2.02006000e-03
2.94549000e-02	-2.70077000e-02	1.00567000e-02
3.05296000e-02	-7.93272000e-03	9.19663000e-03
2.12619000e-02	1.06231000e-02	1.42263000e-02
9.01719000e-04	-1.90491000e-02	7.00603000e-03
5.65118000e-03	-3.22016000e-02	2.17502000e-03
1.04545000e-02	-2.30046000e-02	1.79248000e-02
1.37124000e-02	-3.75558000e-02	1.66607000e-02
3.25853000e-02	1.08080000e-02	1.46540000e-02
6.12175000e-03	-8.98774000e-04	1.80758000e-02
1.21795000e-02	-3.49648000e-02	4.49935000e-03
4.20114000e-04	-3.99591000e-02	4.98483000e-03
2.05541000e-02	5.89336000e-03	1.20913000e-02
2.94102000e-02	-2.18072000e-02	8.53293000e-03
2.68430000e-02	-2.07561000e-02	1.99971000e-03
2.60189000e-02	-2.67185000e-02	5.52745000e-03
8.42539000e-03	-2.79646000e-03	1.12972000e-02
1.64102000e-02	-2.85539000e-02	1.81002000e-02
2.25675000e-02	1.53580000e-02	1.44750000e-02
1.88210000e-02	-1.33554000e-02	1.18360000e-02
3.80945000e-02	9.47390000e-03	5.90722000e-03
2.08526000e-02	1.06460000e-02	5.76507000e-03
3.98357000e-04	-3.72967000e-02	1.99992000e-03
3.12164000e-02	-6.88780000e-03	1.42144000e-02
2.59295000e-02	-2.50692000e-02	1.73370000e-02
3.56078000e-02	6.55445000e-03	1.60043000e-02
9.44391000e-03	-3.34603000e-02	1.99961000e-03
1.10337000e-02	-3.46135000e-02	1.47247000e-02
3.00802000e-02	-2.62790000e-02	6.17463000e-03
4.45688000e-03	-3.26164000e-02	7.52283000e-03
1.12183000e-02	-3.83892000e-02	2.67179000e-03
3.91604000e-02	-7.68268000e-03	1.07360000e-02
7.28004000e-03	-3.85814000e-02	1.99987000e-03
2.26651000e-02	-1.47264000e-02	8.87164000e-03
2.62252000e-02	-2.36785000e-03	1.80996000e-02
9.38609000e-03	-2.93601000e-02	1.13439000e-02
2.84161000e-02	-7.60459000e-03	1.81003000e-02
-2.87993000e-03	-3.98261000e-02	1.12834000e-02
2.02436000e-02	-3.44563000e-02	1.53090000e-02
1.15269000e-02	-1.78166000e-02	1.29701000e-02
1.70186000e-02	-2.08737000e-02	1.04757000e-02
-3.42730000e-03	-3.97410000e-02	6.14595000e-03
2.60653000e-02	6.16727000e-03	2.02713000e-03
2.35285000e-02	1.77290000e-02	2.67986000e-03
8.31237000e-03	-2.91155000e-02	1.99935000e-03
1.28343000e-02	3.71240000e-04	8.83228000e-03
-2.89387000e-03	-3.98885000e-02	2.18422000e-03
3.95220000e-02	5.56246000e-03	1.41205000e-02
2.78452000e-02	-1.92438000e-02	1.81005000e-02
3.25673000e-02	-2.11299000e-03	2.00008000e-03
2.03444000e-02	-2.89651000e-03	1.42062000e-02
1.16719000e-02	-2.09966000e-02	6.19894000e-03
7.19170000e-03	-3.55184000e-02	4.58686000e-03
3.56922000e-02	-1.80393000e-02	1.81001000e-02
2.99383000e-02	-1.24710000e-02	7.76151000e-03
1.28413000e-03	-3.99030000e-02	9.09152000e-03
3.95879000e-02	3.20657000e-03	2.52976000e-03
1.21878000e-02	-2.59860000e-02	9.87341000e-03
-1.90029000e-03	-3.30611000e-02	1.44812000e-02
8.38228000e-03	-1.62812000e-02	4.81195000e-03
-3.63984000e-03	-3.64723000e-02	1.33258000e-02
-5.86057000e-04	-2.30209000e-02	4.55782000e-03
1.71702000e-02	1.22256000e-02	1.80489000e-02
-5.79413000e-03	-3.72135000e-02	1.81002000e-02
2.35585000e-02	-1.63851000e-02	5.34674000e-03
3.63828000e-02	-1.65865000e-02	1.43542000e-02
1.98618000e-02	-1.48882000e-02	4.82075000e-03
7.62256000e-03	-2.01145000e-02	1.80823000e-02
3.76176000e-02	-1.34483000e-02	7.27727000e-03
2.09632000e-02	-6.56837000e-03	1.61120000e-02
-6.18022000e-03	-3.94610000e-02	9.04703000e-03
7.67531000e-03	-3.59150000e-02	1.26586000e-02
6.86094000e-03	-1.11091000e-02	9.41962000e-03
1.20539000e-02	-2.80075000e-02	1.76395000e-02
-1.48801000e-03	-3.20479000e-02	2.27021000e-03
3.63296000e-02	-5.47024000e-03	1.80424000e-02
3.47209000e-02	-1.95578000e-04	1.44940000e-02
3.93329000e-02	-6.83639000e-03	1.48564000e-02
3.45508000e-02	-2.01096000e-02	7.84082000e-03
1.79802000e-02	-1.83175000e-02	5.65564000e-03
2.52264000e-02	-1.62246000e-02	1.79484000e-02
3.24461000e-02	-2.30764000e-04	1.06180000e-02
1.41234000e-02	-1.79008000e-02	6.84275000e-03
9.44857000e-03	-2.33590000e-02	8.53953000e-03
3.99470000e-02	4.55708000e-04	1.81000000e-02
2.17484000e-02	-3.34623000e-02	1.13959000e-02
1.44629000e-02	-3.31594000e-02	7.24197000e-03
2.72437000e-02	-1.84801000e-02	9.95373000e-03
1.11858000e-02	7.80034000e-03	1.73228000e-02
3.83464000e-02	-1.10606000e-02	1.43991000e-02
1.19562000e-02	-3.02493000e-02	8.41077000e-03
1.49411000e-02	-1.83738000e-02	1.50540000e-02
2.58095000e-02	-3.05106000e-02	1.77511000e-02
2.28018000e-02	1.46702000e-02	6.27882000e-03
2.09764000e-02	-2.66156000e-02	1.46714000e-02
3.57892000e-02	9.05298000e-03	1.28863000e-02
3.53739000e-02	-7.24503000e-03	2.00317000e-03
3.97329000e-02	4.19973000e-03	6.40170000e-03
2.88017000e-02	-1.00200000e-02	1.49356000e-02
2.25738000e-02	1.53278000e-02	1.04728000e-02
3.38448000e-02	8.94175000e-03	5.71246000e-03
[...]
POINT_DATA 469
SCALARS Radius double 1
LOOKUP_TABLE default
2.00000000e-03
2.00000000e-03
2.00000000e-03
2.00000000e-03
2.00000000e-03
2.00000000e-03
2.00000000e-03
2.00000000e-03
2.00000000e-03
2.00000000e-03
2.00000000e-03
2.00000000e-03
2.00000000e-03
2.00000000e-03
2.00000000e-03
2.00000000e-03
2.00000000e-03
2.00000000e-03
2.00000000e-03
2.00000000e-03
2.00000000e-03
2.00000000e-03
2.00000000e-03
2.00000000e-03
2.00000000e-03
2.00000000e-03
2.00000000e-03
2.00000000e-03
2.00000000e-03
2.00000000e-03
2.00000000e-03
2.00000000e-03
2.00000000e-03
2.00000000e-03
2.00000000e-03
2.00000000e-03
2.00000000e-03
2.00000000e-03
2.00000000e-03
2.00000000e-03
2.00000000e-03
2.00000000e-03
2.00000000e-03
2.00000000e-03
2.00000000e-03
2.00000000e-03
2.00000000e-03
2.00000000e-03
2.00000000e-03
2.00000000e-03
2.00000000e-03
2.00000000e-03
2.00000000e-03
2.00000000e-03
2.00000000e-03
2.00000000e-03
2.00000000e-03
2.00000000e-03
2.00000000e-03
2.00000000e-03
2.00000000e-03
2.00000000e-03
2.00000000e-03
2.00000000e-03
2.00000000e-03
2.00000000e-03
2.00000000e-03
2.00000000e-03
2.00000000e-03
2.00000000e-03
2.00000000e-03
2.00000000e-03
2.00000000e-03
2.00000000e-03
2.00000000e-03
2.00000000e-03
2.00000000e-03
2.00000000e-03
2.00000000e-03
2.00000000e-03
2.00000000e-03
2.00000000e-03
2.00000000e-03
2.00000000e-03
2.00000000e-03
2.00000000e-03
2.00000000e-03
2.00000000e-03
2.00000000e-03
2.00000000e-03
2.00000000e-03
2.00000000e-03
2.00000000e-03
2.00000000e-03
2.00000000e-03
2.00000000e-03
2.00000000e-03
2.00000000e-03
2.00000000e-03
2.00000000e-03
2.00000000e-03
2.00000000e-03
2.00000000e-03
2.00000000e-03
2.00000000e-03
2.00000000e-03
2.00000000e-03
2.00000000e-03
2.00000000e-03
2.00000000e-03
2.00000000e-03
2.00000000e-03
2.00000000e-03
2.00000000e-03
2.00000000e-03
2.00000000e-03
2.00000000e-03
2.00000000e-03
2.00000000e-03
2.00000000e-03
2.00000000e-03
2.00000000e-03
2.00000000e-03
2.00000000e-03
2.00000000e-03
2.00000000e-03
2.00000000e-03
2.00000000e-03
2.00000000e-03
2.00000000e-03
2.00000000e-03
2.00000000e-03
2.00000000e-03
2.00000000e-03
2.00000000e-03
2.00000000e-03
2.00000000e-03
2.00000000e-03
2.00000000e-03
2.00000000e-03
2.00000000e-03
2.00000000e-03
2.00000000e-03
2.00000000e-03
2.00000000e-03
2.00000000e-03
2.00000000e-03
2.00000000e-03
2.00000000e-03
2.00000000e-03
2.00000000e-03
2.00000000e-03
2.00000000e-03
2.00000000e-03
2.00000000e-03
2.00000000e-03
2.00000000e-03
2.00000000e-03
2.00000000e-03
2.00000000e-03
2.00000000e-03
2.00000000e-03
2.00000000e-03
2.00000000e-03
2.00000000e-03
2.00000000e-03
2.00000000e-03
2.00000000e-03
2.00000000e-03
2.00000000e-03
2.00000000e-03
2.00000000e-03
2.00000000e-03
2.00000000e-03
2.00000000e-03
2.00000000e-03
2.00000000e-03
2.00000000e-03
2.00000000e-03
2.00000000e-03
2.00000000e-03
2.00000000e-03
2.00000000e-03
2.00000000e-03
2.00000000e-03
2.00000000e-03
2.00000000e-03
2.00000000e-03
2.00000000e-03
2.00000000e-03
2.00000000e-03
2.00000000e-03
2.00000000e-03
2.00000000e-03
2.00000000e-03
2.00000000e-03
2.00000000e-03
2.00000000e-03
2.00000000e-03
2.00000000e-03
2.00000000e-03
2.00000000e-03
2.00000000e-03
2.00000000e-03
2.00000000e-03
2.00000000e-03
2.00000000e-03
2.00000000e-03
2.00000000e-03
2.00000000e-03
2.00000000e-03
2.00000000e-03
2.00000000e-03
2.00000000e-03
2.00000000e-03
2.00000000e-03
2.00000000e-03
2.00000000e-03
2.00000000e-03
2.00000000e-03
2.00000000e-03
2.00000000e-03
2.00000000e-03
2.00000000e-03
2.00000000e-03
2.00000000e-03
2.00000000e-03
2.00000000e-03
2.00000000e-03
2.00000000e-03
2.00000000e-03
2.00000000e-03
2.00000000e-03
2.00000000e-03
2.00000000e-03
2.00000000e-03
2.00000000e-03
2.00000000e-03
2.00000000e-03
2.00000000e-03
2.00000000e-03
2.00000000e-03
2.00000000e-03
2.00000000e-03
2.00000000e-03
2.00000000e-03
2.00000000e-03
2.00000000e-03
2.00000000e-03
2.00000000e-03
2.00000000e-03
2.00000000e-03
2.00000000e-03
2.00000000e-03
2.00000000e-03
2.00000000e-03
2.00000000e-03
2.00000000e-03
2.00000000e-03
2.00000000e-03
2.00000000e-03
2.00000000e-03
2.00000000e-03
2.00000000e-03
2.00000000e-03
2.00000000e-03
2.00000000e-03
2.00000000e-03
2.00000000e-03
2.00000000e-03
2.00000000e-03
2.00000000e-03
2.00000000e-03
2.00000000e-03
2.00000000e-03
2.00000000e-03
2.00000000e-03
2.00000000e-03
2.00000000e-03
2.00000000e-03
2.00000000e-03
2.00000000e-03
2.00000000e-03
2.00000000e-03
2.00000000e-03
2.00000000e-03
2.00000000e-03
2.00000000e-03
2.00000000e-03
2.00000000e-03
2.00000000e-03
2.00000000e-03
2.00000000e-03
2.00000000e-03
2.00000000e-03
2.00000000e-03
2.00000000e-03
2.00000000e-03
2.00000000e-03
2.00000000e-03
2.00000000e-03
2.00000000e-03
2.00000000e-03
2.00000000e-03
2.00000000e-03
2.00000000e-03
2.00000000e-03
2.00000000e-03
2.00000000e-03
2.00000000e-03
2.00000000e-03
2.00000000e-03
2.00000000e-03
2.00000000e-03
2.00000000e-03
2.00000000e-03
2.00000000e-03
2.00000000e-03
2.00000000e-03
2.00000000e-03
2.00000000e-03
2.00000000e-03
2.00000000e-03
2.00000000e-03
2.00000000e-03
2.00000000e-03
2.00000000e-03
2.00000000e-03
2.00000000e-03
2.00000000e-03
2.00000000e-03
2.00000000e-03
2.00000000e-03
2.00000000e-03
2.00000000e-03
2.00000000e-03
2.00000000e-03
2.00000000e-03
2.00000000e-03
2.00000000e-03
2.00000000e-03
2.00000000e-03
2.00000000e-03
2.00000000e-03
2.00000000e-03
2.00000000e-03
2.00000000e-03
2.00000000e-03
2.00000000e-03
2.00000000e-03
2.00000000e-03
2.00000000e-03
2.00000000e-03
2.00000000e-03
2.00000000e-03
2.00000000e-03
2.00000000e-03
2.00000000e-03
2.00000000e-03
2.00000000e-03
2.00000000e-03
2.00000000e-03
2.00000000e-03
2.00000000e-03
2.00000000e-03
2.00000000e-03
2.00000000e-03
2.00000000e-03
2.00000000e-03
2.00000000e-03
2.00000000e-03
2.00000000e-03
2.00000000e-03
2.00000000e-03
2.00000000e-03
2.00000000e-03
2.00000000e-03
2.00000000e-03
2.00000000e-03
2.00000000e-03
2.00000000e-03
2.00000000e-03
2.00000000e-03
2.00000000e-03
2.00000000e-03
2.00000000e-03
2.00000000e-03
2.00000000e-03
2.00000000e-03
2.00000000e-03
2.00000000e-03
2.00000000e-03
2.00000000e-03
2.00000000e-03
2.00000000e-03
2.00000000e-03
2.00000000e-03
2.00000000e-03
2.00000000e-03
2.00000000e-03
2.00000000e-03
2.00000000e-03
2.00000000e-03
2.00000000e-03
2.00000000e-03
2.00000000e-03
2.00000000e-03
2.00000000e-03
2.00000000e-03
2.00000000e-03
2.00000000e-03
2.00000000e-03
2.00000000e-03
2.00000000e-03
2.00000000e-03
2.00000000e-03
2.00000000e-03
2.00000000e-03
2.00000000e-03
2.00000000e-03
2.00000000e-03
2.00000000e-03
2.00000000e-03
2.00000000e-03
2.00000000e-03
2.00000000e-03
2.00000000e-03
2.00000000e-03
2.00000000e-03
2.00000000e-03
2.00000000e-03
2.00000000e-03
2.00000000e-03
2.00000000e-03
2.00000000e-03
2.00000000e-03
2.00000000e-03
2.00000000e-03
2.00000000e-03
2.00000000e-03
2.00000000e-03
2.00000000e-03
2.00000000e-03
2.00000000e-03
2.00000000e-03
2.00000000e-03
2.00000000e-03
2.00000000e-03
2.00000000e-03
2.00000000e-03
2.00000000e-03
2.00000000e-03
2.00000000e-03
2.00000000e-03
2.00000000e-03
2.00000000e-03
2.00000000e-03
2.00000000e-03
2.00000000e-03
2.00000000e-03
2.00000000e-03
2.00000000e-03
2.00000000e-03
2.00000000e-03
2.00000000e-03
2.00000000e-03
2.00000000e-03
2.00000000e-03
2.00000000e-03
